<VTKFile type="UnstructuredGrid" version="1.0" byte_order="LittleEndian" header_type="UInt64">
  <UnstructuredGrid>
    <FieldData>
      <DataArray type="Float64" Name="TimeValue" NumberOfTuples="1" format="ascii" RangeMin="0" RangeMax="0">
        0
      </DataArray>
    </FieldData>
    <Piece NumberOfPoints="849" NumberOfCells="3">
      <PointData>
        <DataArray type="Int64" IdType="1" Name="vtkOriginalPointIds" format="ascii" RangeMin="0" RangeMax="534">
          282 283 284 285 286 287
          288 289 290 291 292 293
          294 295 296 297 298 299
          300 301 302 303 304 305
          306 307 308 309 310 311
          312 313 0 1 2 3
          4 5 6 7 8 9
          10 11 12 13 14 15
          16 17 18 19 20 21
          22 23 24 25 26 27
          28 29 30 31 32 33
          34 35 36 37 38 39
          40 41 42 43 44 45
          46 47 48 49 50 51
          52 53 54 55 56 57
          58 59 60 61 62 63
          64 65 66 67 68 69
          70 71 72 73 74 75
          76 77 78 79 80 81
          82 83 84 85 86 87
          88 89 90 91 92 93
          94 95 96 97 98 99
          100 101 102 103 104 105
          106 107 108 109 110 111
          112 113 114 115 116 117
          118 119 120 121 122 123
          124 125 126 127 128 129
          130 131 132 133 134 135
          136 137 138 139 140 141
          142 143 144 145 146 147
          148 149 150 151 152 153
          154 155 156 157 158 159
          160 161 162 163 164 165
          166 167 168 169 170 171
          172 173 174 175 176 177
          178 179 180 181 182 183
          184 185 186 187 188 189
          190 191 192 193 194 195
          196 197 198 199 200 201
          202 203 204 205 206 207
          208 209 210 211 212 213
          214 215 216 217 218 219
          220 221 222 223 224 225
          226 227 228 229 230 231
          232 233 234 235 236 237
          238 239 240 241 242 243
          244 245 246 247 248 249
          250 251 252 253 254 255
          256 257 258 259 260 261
          262 263 264 265 266 267
          268 269 270 271 272 273
          274 275 276 277 278 279
          280 281 0 1 2 3
          4 5 6 7 8 9
          10 11 12 13 14 15
          16 17 18 19 20 21
          22 23 24 25 26 27
          28 29 30 31 32 33
          34 35 36 37 38 39
          40 41 42 43 44 45
          46 47 48 49 50 51
          52 53 54 55 56 57
          58 59 60 61 62 63
          64 65 66 67 68 69
          70 71 72 73 74 75
          76 77 78 79 80 81
          82 83 84 85 86 87
          88 89 90 91 92 93
          94 95 96 97 98 99
          100 101 102 103 104 105
          106 107 108 109 110 111
          112 113 114 115 116 117
          118 119 120 121 122 123
          124 125 126 127 128 129
          130 131 132 133 134 135
          136 137 138 139 140 141
          142 143 144 145 146 147
          148 149 150 151 152 153
          154 155 156 157 158 159
          160 161 162 163 164 165
          166 167 168 169 170 171
          172 173 174 175 176 177
          178 179 180 181 182 183
          184 185 186 187 188 189
          190 191 192 193 194 195
          196 197 198 199 200 201
          202 203 204 205 206 207
          208 209 210 211 212 213
          214 215 216 217 218 219
          220 221 222 223 224 225
          226 227 228 229 230 231
          232 233 234 235 236 237
          238 239 240 241 242 243
          244 245 246 247 248 249
          250 251 252 253 254 255
          256 257 258 259 260 261
          262 263 264 265 266 267
          268 269 270 271 272 273
          274 275 276 277 278 279
          280 281 282 283 284 285
          286 287 288 289 290 291
          292 293 294 295 296 297
          298 299 300 301 302 303
          304 305 306 307 308 309
          310 311 312 313 314 315
          316 317 318 319 320 321
          322 323 324 325 326 327
          328 329 330 331 332 333
          334 335 336 337 338 339
          340 341 342 343 344 345
          346 347 348 349 350 351
          352 353 354 355 356 357
          358 359 360 361 362 363
          364 365 366 367 368 369
          370 371 372 373 374 375
          376 377 378 379 380 381
          382 383 384 385 386 387
          388 389 390 391 392 393
          394 395 396 397 398 399
          400 401 402 403 404 405
          406 407 408 409 410 411
          412 413 414 415 416 417
          418 419 420 421 422 423
          424 425 426 427 428 429
          430 431 432 433 434 435
          436 437 438 439 440 441
          442 443 444 445 446 447
          448 449 450 451 452 453
          454 455 456 457 458 459
          460 461 462 463 464 465
          466 467 468 469 470 471
          472 473 474 475 476 477
          478 479 480 481 482 483
          484 485 486 487 488 489
          490 491 492 493 494 495
          496 497 498 499 500 501
          502 503 504 505 506 507
          508 509 510 511 512 513
          514 515 516 517 518 519
          520 521 522 523 524 525
          526 527 528 529 530 531
          532 533 534
        </DataArray>
      </PointData>
      <CellData>
        <DataArray type="Float32" Name="cell_area" format="ascii" RangeMin="2.5970001149566713e-10" RangeMax="5.2139998985012426e-9">
          2.597e-10 2.758e-9 5.214e-9
        </DataArray>
        <DataArray type="Float32" Name="cell_division_vol" format="ascii" RangeMin="0.3499999940395355" RangeMax="1000000000">
          0.35 0.38 1000000000
        </DataArray>
        <DataArray type="Float32" Name="cell_growth_rate" format="ascii" RangeMin="0" RangeMax="9.999999960041972e-13">
          1e-13 1e-12 0
        </DataArray>
        <DataArray type="Int32" Name="cell_id" format="ascii" RangeMin="0" RangeMax="2">
          2 1 0
        </DataArray>
        <DataArray type="Int32" Name="cell_is_static" format="ascii" RangeMin="0" RangeMax="1">
          0 0 1
        </DataArray>
        <DataArray type="Float32" Name="cell_pressure" format="ascii" RangeMin="0" RangeMax="0">
          0 0 0
        </DataArray>
        <DataArray type="Int32" Name="cell_type_id" format="ascii" RangeMin="0" RangeMax="3">
          3 0 2
        </DataArray>
        <DataArray type="Float32" Name="cell_volume" format="ascii" RangeMin="3.729000081607197e-16" RangeMax="3.0959999510913813e-14">
          3.729e-16 1.354e-14 3.096e-14
        </DataArray>
        <DataArray type="Float32" Name="target_volume" format="ascii" RangeMin="3.729000081607197e-16" RangeMax="3.0959999510913813e-14">
          3.729e-16 1.354e-14 3.096e-14
        </DataArray>
        <DataArray type="Int64" IdType="1" Name="vtkOriginalCellIds" format="ascii" RangeMin="0" RangeMax="1">
          1 0 0
        </DataArray>
      </CellData>
      <Points>
        <DataArray type="Float32" Name="Points" NumberOfComponents="3" format="ascii" RangeMin="0.000007044707933322957" RangeMax="0.000032532158805529646">
          0.0000042381002 0.0000057632997 3.62955e-8 0.0000041417998 0.00000110595 0.00000589425
          0.0000051531 0.0000038628 0.00000324645 0.00000460275 0.0000032077498 -0.00000441
          0.0000065394 -0.0000032276998 9.5037e-7 0.0000043482 -3.71355e-7 -0.0000059536496
          0.0000043884 -0.0000039015 0.00000396495 0.0000042338997 -0.00000588045 -4.60935e-7
          0.00000446505 -0.00000390525 -0.0000039462 7.58445e-7 0.0000040885498 0.0000058869
          6.8994e-7 0.00000656865 0.0000028824 8.12625e-7 0.0000071289 -0.00000137289
          4.7139002e-7 0.00000554055 -0.00000488265 7.1272495e-7 3.26175e-8 0.00000717825
          5.9350504e-7 2.0009999e-7 -0.00000711135 4.9002e-7 -0.0000048822003 0.00000549105
          4.96845e-7 -0.0000069234 0.00000199965 9.97065e-7 -0.0000053324998 -0.0000046489504
          -0.0000030848998 0.0000065478 2.95005e-7 -0.0000033196502 0.0000018897 0.00000607305
          -0.0000031616999 3.50145e-7 -0.0000064479 -0.00000151185 -0.00000303015 -0.00000652665
          -0.00000335295 -0.00000647715 -2.34975e-7 -0.00000460065 0.000004353 0.0000035385
          -0.0000059839494 0.0000041718 -7.2768e-8 -0.00000433275 0.0000043871996 -0.0000035997
          -0.0000070840497 2.9362502e-7 1.9554e-7 -0.0000054337497 -8.51535e-7 0.00000453345
          -0.0000061375495 1.072005e-7 -0.0000035877001 -0.0000038036999 -0.00000427485 0.00000435195
          -0.0000060672 -0.0000038922 9.3227996e-8 -0.0000049482 -0.00000349755 -0.0000035931002
          0.000018091117 0.000007652 0.0000013634 0.000019809819 0.0000052224 7.0225e-7
          0.00001823733 0.0000071821 -0.0000011771 0.000019342517 0.0000039743 0.0000047031
          0.000020598214 0.0000027908 0.0000018722 0.000019858557 0.0000039458 -0.0000031556
          0.000020952277 0.000001951 -0.0000017642 0.000019345383 0.0000019369 -0.0000056595
          0.000017810162 -3.3293e-7 0.0000081638 0.000020204017 5.0045e-8 0.0000043678
          0.000021105654 -7.6919e-7 2.8502e-7 0.000020876303 -0.0000014035 -0.0000024858
          0.00001900279 -7.4271e-7 -0.0000064725 0.000019071595 -0.0000027673 0.0000060146
          0.000020403266 -0.0000031914 0.000003002 0.000020645519 -0.0000035135 6.1062e-8
          0.000019584768 -0.0000029509 -0.0000048876 0.000019212071 -0.000005567 0.0000031393
          0.000018685998 -0.000006843 5.8256e-7 0.000019312412 -0.0000057711 -0.0000022476
          0.000017943474 -0.0000052264 -0.0000054476 0.000016077127 0.0000093419 0.0000027481
          0.00001604129 0.0000096342 -6.0318e-8 0.00001624054 0.0000091377 -0.0000026716
          0.00001722675 0.0000074843 0.0000046241 0.00001688129 0.0000074813 -0.0000046607
          0.000014824293 0.0000074661 -0.0000071999 0.00001686122 0.0000046062 0.0000077349
          0.000017590844 0.0000050933 -0.0000063673 0.000015566819 0.0000026362 0.0000097653
          0.000016613234 0.0000021983 -0.0000087274 0.000015728798 -7.0268e-7 0.0000102
          0.000015707297 -1.9721e-8 -0.0000097608 0.000017312757 -0.0000024851 -0.000008002
          0.000017599446 -0.0000051816 0.000006874 0.00001726832 -0.0000073418 0.0000049681
          0.000017663951 -0.000007256 -0.0000039865 0.000016088594 -0.0000058025 -0.0000077073
          0.000014895966 -0.0000095393 0.0000046153 0.00001698163 -0.0000088766 -4.1484e-7
          0.000015145386 -0.0000083363 -0.0000062597 0.000015383339 -0.00001011 0.0000015669
          0.00001456871 -0.0000098973 -0.0000042757 0.000010701273 0.000011782 0.0000051116
          0.000013354868 0.000011264 0.0000025366 0.000011356645 0.000012394 -0.0000012574
          0.000011482358 0.00001005 0.0000075717 0.000013793932 0.000010085 0.0000052889
          0.0000131736815 0.000009642 -0.0000063012 0.000011888741 0.0000073635 0.0000099129
          0.000014136671 0.0000075755 0.0000078483 0.0000125650395 0.000007341 -0.0000091903
          0.000013754083 0.0000049882 0.000010319 0.00001393054 0.0000034614 -0.0000105
          0.000011487518 0.0000022948 -0.00001212 0.000013752364 -0.0000021188 -0.000010963
          0.000010880454 -4.677e-7 -0.000012624 0.0000140968195 -0.0000043833 0.000010352
          0.000010601649 -0.0000034907 -0.000012224 0.00001268846 -0.000006788 0.000010134
          0.000013446036 -0.0000063103 -0.0000095096 0.000014132226 -0.0000081879 0.0000078118
          0.000012855742 -0.0000084459 -0.0000082513 0.000011842726 -0.000010709 0.000006417
          0.000012382132 -0.000011754 0.0000028609 0.000013520861 -0.000011581 -1.6457e-7
          0.000012044555 -0.000011842 -0.0000031267 0.0000122869515 -0.000010171 -0.0000064175
          0.000010701273 -0.000012909 8.2764e-7 0.0000070948668 0.00001401 -1.6338e-7
          0.000010480952 0.000012634 0.0000018412 0.000010030277 0.000012318 -0.0000041834
          0.000007085119 0.000011879 -0.0000072416 0.0000094428515 0.000010134 -0.0000082736
          0.000009248046 0.0000065212 -0.000011352 0.000008388265 0.000004919 0.000012822
          0.000007903187 0.0000043795 -0.000012828 0.000010111554 0.0000024797 0.000012921
          0.000010558502 -0.000001889 0.000012869 0.0000072301837 -0.0000022045 -0.00001358
          0.0000070736514 -0.0000030612 0.00001393 0.000008272586 -0.0000055014 0.000012739
          0.000008011125 -0.0000058566 -0.0000123 0.000010154987 -0.0000087068 0.000010084
          0.000009594796 -0.0000081421 -0.000010145 0.000010240564 -0.000011929 -0.0000053348
          0.000009488005 -0.000010142 -0.0000085448 0.000009518537 -0.000012393 0.0000052412
          0.0000096482645 -0.000013208 -0.0000018601 0.0000070444094 -0.000012394 -0.0000065223
          0.0000062790923 0.000013247 0.000004783 0.0000050870385 0.000014135 0.0000024421
          0.0000043485275 0.000013781 -0.0000039712 0.0000060890175 0.000012158 0.0000076466
          0.000006249277 0.000010458 -0.0000094086 0.000006780512 0.0000097149 0.000010093
          0.000005774519 0.0000066557 0.000012845 0.0000060957545 0.0000075918 -0.000011886
          0.000003427825 0.0000048935 0.000014074 0.000003580487 0.0000042719 -0.000013843
          0.0000054613115 0.000002614 0.000014348 0.0000067516994 7.4701e-7 -0.000013879
          0.000005588458 -5.6077e-7 0.000014527 0.0000036300842 -6.2896e-7 -0.000014464
          0.0000034434495 -0.0000026288 0.000014717 0.0000049253463 -0.0000046434 -0.00001346
          0.0000047030185 -0.0000069584 0.000012886 0.000006858635 -0.000009755 0.000010397
          0.0000037037632 -0.000007689 -0.000012218 0.000005443537 -0.000010493 -0.0000097475
          0.0000064889487 -0.000012747 0.000006545 0.000004659155 -0.000014185 0.0000037397
          0.000006401939 -0.000014268 9.3787e-7 0.000006265188 -0.000014041 -0.000002188
          3.5677874e-7 0.000014008 0.0000049452 0.0000030797844 0.000014747 2.7352e-7
          9.576678e-7 0.000013873 -0.0000048452 0.0000032300095 0.000010606 0.000010386
          0.0000025128563 0.000012606 0.0000079172 0.0000026959074 0.000012638 -0.0000070533
          0.0000026250952 0.000010351 -0.000010204 9.1889314e-7 0.0000075849 0.000012927
          0.0000016732297 0.0000075638 -0.00001252 0.0000011177408 0.0000026398 0.000014845
          1.4197973e-7 0.0000029438 -0.000014347 0.00000213457 5.1074e-8 0.000015043
          4.815344e-7 -0.0000037141 -0.000014259 0.0000015543397 -0.0000051389 0.00001416
          9.523641e-7 -0.0000084546 0.000012514 0.0000030592862 -0.000010279 0.000010705
          0.0000019343177 -0.000011139 -0.0000097114 0.000002468993 -0.000012608 0.0000079331
          2.8543514e-7 -0.000014134 0.000005146 3.350262e-7 -0.000014803 0.0000023487
          0.0000028746583 -0.000014811 -0.0000011098 0.0000026781327 -0.000014397 -0.0000035837
          0.0000033224667 -0.000012813 -0.0000071651 -0.0000027911803 0.000014303 0.0000032221
          -5.4079925e-7 0.000014884 0.0000012319 -4.802361e-7 0.000014836 -0.0000013041
          -9.800215e-7 0.000012874 -0.0000072646 -3.3247656e-7 0.000011138 0.000010025
          -0.0000028760405 0.000012577 0.000007649 -0.0000024593378 0.000010338 -0.000010388
          -0.000002816409 0.0000074915 0.000012898 -0.0000013194615 0.0000061595 -0.000013368
          -0.0000011829975 0.0000049487 0.000014245 -0.000003439098 0.0000033493 -0.000014106
          -0.0000028906618 0.0000022321 0.000014817 -6.847029e-7 4.0871e-7 -0.000014555
          -0.0000016019937 -0.0000018058 0.000014943 -0.000003530695 -0.0000024184 -0.000014344
          -0.0000026012488 -0.0000052823 0.000014078 -0.0000030074877 -0.0000051545 -0.000013709
          -0.0000030919173 -0.0000088677 0.000011993 -4.0538166e-7 -0.0000073856 -0.000012715
          -0.0000022410238 -0.000011001 0.0000101 -0.000003306934 -0.000010895 -0.0000097781
          -0.000002108287 -0.000012534 0.0000080769 -0.0000028270165 -0.000014354 0.0000037195
          -0.0000012725878 -0.000014625 -0.0000028458 -0.000001478574 -0.000013792 -0.0000057065
          -7.8981753e-7 -0.000012419 -0.0000081061 -0.0000063821058 0.000012938 0.0000060874
          -0.0000065366316 0.0000137 0.0000034592 -0.000006581498 0.000014047 8.8685e-7
          -0.0000040058826 0.00001416 -0.0000036746 -0.000004607213 0.000013098 -0.0000059893
          -0.000005012879 0.000010598 0.000010035 -0.000005680864 0.00001175 -0.0000080505
          -0.0000059383115 0.0000082686 0.000011787 -0.0000070062283 0.000010036 -0.0000096894
          -0.0000041849203 0.0000078108 -0.000012165 -0.000005078387 0.0000056428 0.000013487
          -0.00000686188 0.0000026004 -0.000013644 -0.0000052114106 -0.000002289 0.000014503
          -0.0000069761263 -0.0000035256 -0.000013576 -0.0000051039024 -0.0000069938 0.000012921
          -0.00000520496 -0.0000078414 -0.000012082 -0.000006140284 -0.000010592 0.00000993
          -0.000005413526 -0.000012827 0.0000070667 -0.0000045699435 -0.000014557 0.0000014949
          -0.0000070247197 -0.000014028 -0.0000015947 -0.000005248824 -0.000013719 -0.0000041719
          -0.000004583131 -0.000012617 -0.0000073531 -0.000008871859 0.000013494 -9.7222e-7
          -0.000008053504 0.000012775 -0.0000052722 -0.0000077013065 0.000011519 0.0000079761
          -0.00000999439 0.000012485 0.0000045624 -0.0000107377755 0.000012393 -0.000003608
          -0.000008790868 0.0000093682 0.00001011 -0.000008790295 0.0000065995 0.000012091
          -0.000007779572 0.0000060871 -0.000012306 -0.000007924207 0.0000039452 0.000013216
          -0.000007956317 5.4789e-7 0.000014086 -0.000008666732 -0.00000235 0.000013669
          -0.000008387928 -4.9366e-7 -0.000013561 -0.000007949149 -0.0000050168 0.000013048
          -0.000008800759 -0.0000061006 -0.000012097 -0.000007943845 -0.0000084204 0.000011143
          -0.000009383885 -0.000010445 0.000008794 -0.000008235265 -0.000011363 -0.000007496
          -0.000007788603 -0.0000098954 -0.0000096791 -0.000008112562 -0.000013253 0.0000041606
          -0.000008011648 -0.000013928 8.3288e-7 -0.000008212043 -0.000012755 -0.0000053566
          -0.000011012853 0.000012651 0.0000012754 -0.000012785453 0.000010424 0.0000059057
          -0.0000142187555 0.000011001 0.000001353 -0.000012846947 0.00001188 -0.0000012409
          -0.000010960246 0.000010435 -0.0000071456 -0.000010946342 0.0000080184 -0.0000097789
          -0.000013259636 0.0000059779 0.000010303 -0.000011401747 0.0000052864 -0.000011202
          -0.000012159323 0.0000024152 0.000012355 -0.000011404041 0.0000023838 -0.000012366
          -0.000011279044 -3.0371e-7 0.000012987 -0.000011782184 -2.4727e-7 -0.000012388
          -0.000011215973 -0.0000031827 -0.0000122 -0.000011949181 -0.000004977 0.000011674
          -0.000014114114 -0.0000054955 -0.000009469 -0.000011693167 -0.0000077286 0.000010111
          -0.000011807412 -0.000007476 -0.0000099789 -0.000012354846 -0.000010459 0.0000067033
          -0.0000115309 -0.000011571 -0.0000051032 -0.0000111314 -0.0000099798 -0.0000080126
          -0.000011301119 -0.000012551 0.000002995 -0.000012158177 -0.000012403 4.036e-7
          -0.000011378096 -0.000012483 -0.000002744 -0.000014660256 0.00001015 0.000003777
          -0.000014829404 0.000010223 -0.0000034296 -0.000014539847 0.0000077394 0.0000079454
          -0.000016181142 0.0000083038 0.0000053827 -0.000017200324 0.0000084303 0.0000022916
          -0.000016069334 0.0000099002 -5.3215e-7 -0.000014582851 0.0000080455 -0.000007183
          -0.000017198889 0.0000074504 -0.0000045417 -0.000016730153 0.0000059451 -0.0000071529
          -0.000014905376 0.0000026768 0.000010611 -0.000015933158 0.0000045622 0.0000091092
          -0.000014885308 0.000004031 -0.0000098746 -0.000015961827 0.0000010029 -0.0000098423
          -0.000014859505 -1.3963e-7 0.000011086 -0.000016867763 -0.0000019786 0.0000092217
          -0.000014594319 -0.0000036649 0.000010503 -0.000017446875 -0.000004245 0.0000079012
          -0.000015200666 -0.0000031266 -0.000010007 -0.000014667424 -0.0000076438 0.0000080258
          -0.000016771723 -0.0000079852 0.000004739 -0.0000169122 -0.0000078596 -0.0000049183
          -0.00001508599 -0.0000074085 -0.0000076371 -0.00001452408 -0.000010035 0.0000045993
          -0.000015911655 -0.0000099714 0.0000019491 -0.000015252271 -0.000010314 -0.0000022751
          -0.000014608653 -0.0000098843 -0.0000047702 -0.000018152132 0.000007712 -0.0000021183
          -0.000018208037 0.0000053466 0.0000060082 -0.000018549195 0.0000066418 0.0000038811
          -0.000019318955 0.0000063817 0.0000013043 -0.000021138 0.0000027539 1.8665e-7
          -0.000020250696 0.0000041369 -0.0000022425 -0.000018802915 0.0000048641 -0.0000052874
          -0.000018365714 0.0000026695 -0.0000072623 -0.000018117727 1.8442e-7 0.0000081955
          -0.00001899643 0.0000023417 0.0000066548 -0.00002099752 0.0000015772 0.0000033533
          -0.00002122974 0.0000011244 -0.0000026033 -0.000020141755 0.0000012701 -0.0000050233
          -0.000018805782 1.5125e-7 -0.0000071054 -0.000019006466 -0.0000018879 0.0000069339
          -0.00002099752 -9.6791e-7 0.0000025623 -0.00002160387 -5.9823e-7 -1.4661e-7
          -0.000020356772 -0.0000035778 0.0000028031 -0.000020955951 -0.0000037239 -5.99e-8
          -0.000020666395 -0.0000026716 -0.0000024528 -0.000019823528 -0.0000025564 -0.0000049641
          -0.000018153565 -0.0000028787 -0.000007502 -0.00001886742 -0.0000049829 0.0000053966
          -0.000019895202 -0.0000054124 -0.0000021459 -0.000018691107 -0.0000051293 -0.0000052732
          -0.000018521961 -0.00000759 0.0000017658 -0.000018273973 -0.0000076412 -0.0000023634
          0.000031123 0.0000037627 9.1283e-7 0.000030272 0.000004774 -0.0000014202
          0.00003026 5.3929e-8 0.0000052594 0.000031338 0.0000013472 0.0000033384
          0.000031546 0.0000022677 -0.0000018372 0.00003023 -1.1527e-7 -0.000005147
          0.000030441 -0.0000025909 0.0000039957 0.000032032 -8.917e-7 -3.4577e-7
          0.000030552 -0.0000044311 0.0000022111 0.000031486 -0.0000032839 -9.7967e-7
          0.000029974 -0.0000056151 -6.2439e-7 0.000029589 0.0000059531 6.7691e-7
          0.000028657 0.0000069197 -0.0000014527 0.000029594 0.0000041503 0.0000048072
          0.00002953 0.0000046268 -0.0000042306 0.000028942 0.00000204 0.0000066312
          0.000028841 -0.0000015496 0.0000066564 0.000029803 -0.0000025841 -0.0000050163
          0.000027379 -0.0000023271 -0.0000076048 0.000028921 -0.0000047936 0.0000046573
          0.000028473 -0.0000067954 0.0000019124 0.000029391 -0.0000053197 -0.0000032433
          0.000027472 -0.0000053252 -0.0000058501 0.000027721 -0.0000077693 -4.4539e-7
          0.000027087 0.0000079505 0.0000021583 0.000026268 0.0000085776 -0.0000023415
          0.000026745 0.0000072491 0.0000048432 0.000026922 0.0000071688 -0.0000044155
          0.000026884 0.0000045617 0.0000073093 0.000026472 0.0000046808 -0.000007305
          0.000027248 8.6254e-7 0.0000082225 0.00002729 0.0000021511 -0.0000075345
          0.00002526 -4.7243e-7 -0.0000093596 0.000026375 -0.0000032507 0.0000081762
          0.000025044 -0.0000056704 0.0000077686 0.000026559 -0.0000064439 0.0000057956
          0.00002684 -0.0000072521 -0.0000040752 0.000025164 -0.000005442 -0.0000076037
          0.000025248 -0.0000083936 0.0000041313 0.00002555 -0.000009126 -9.0848e-7
          0.000024852 -0.0000087734 -0.0000039346 0.000022501 0.000010924 0.000001698
          0.000024742 0.000009954 -6.5074e-7 0.000024757 0.0000096853 0.0000023727
          0.000023884 0.0000097196 -0.0000034843 0.000024279 0.0000071654 0.0000072898
          0.000023874 0.0000068991 -0.0000075781 0.000023372 0.0000040724 0.0000097186
          0.000024624 0.0000041409 -0.0000089162 0.000024687 0.000001184 0.0000098204
          0.000023473 0.0000014154 -0.000010189 0.000024574 -0.0000014294 0.0000098896
          0.000024757 -0.0000029423 -0.0000090678 0.000024481 -0.0000076488 -0.0000061384
          0.000022892 -0.0000062333 -0.0000084877 0.000023825 -0.0000077387 0.0000067274
          0.000024199 -0.0000098779 0.0000020215 0.000023006 -0.00001064 -2.3021e-7
          0.000022871 -0.000010342 -0.0000027691 0.000022198 0.000010469 0.0000041734
          0.000021889 0.000011177 -9.0215e-7 0.000021556 0.000010757 -0.0000036646
          0.000022038 0.0000084397 0.0000073192 0.000021846 0.0000093546 -0.0000062899
          0.000021358 0.0000072446 -0.0000087885 0.000020628 0.000003969 0.000010952
          0.00002229 0.0000047395 -0.0000096463 0.000020167 0.0000039463 -0.00001103
          0.000021572 2.7987e-7 0.000011322 0.000022279 -0.000002104 0.000010785
          0.000021525 -7.5089e-7 -0.0000112 0.000021939 -0.0000039504 -0.000010317
          0.000020703 -0.000005241 0.000010342 0.000021755 -0.0000070197 0.0000086582
          0.000020036 -0.0000056699 -0.000010354 0.000021925 -0.0000097183 -0.0000050176
          0.000021635 -0.000010559 0.000003973 0.000019668 0.000011109 0.0000051206
          0.000019464 0.000012129 0.0000022568 0.000019523 0.000012148 -0.0000019153
          0.000018561 0.000011782 -0.0000042437 0.00001732 0.000011198 -0.0000064058
          0.000019617 0.0000097528 0.0000073535 0.000019498 0.0000096188 -0.0000073622
          0.000019652 0.0000072936 0.0000098147 0.000018854 0.0000066634 -0.000010327
          0.0000195 0.0000018675 0.00001208 0.000019152 -7.355e-7 0.000012297
          0.00001909 -0.0000013029 -0.000012074 0.000017386 -0.0000036821 -0.000012106
          0.00001937 -0.0000074134 0.0000097516 0.000018239 -0.0000073499 -0.0000098498
          0.000019814 -0.0000097575 0.0000070705 0.000019645 -0.0000089237 -0.0000079082
          0.000017415 -0.000010232 0.0000076559 0.000018085 -0.000011534 0.0000050796
          0.000018682 -0.00001207 0.0000025417 0.000019073 -0.000012189 -7.3513e-10
          0.000019587 -0.000011771 -0.0000027301 0.000019373 -0.000010893 -0.0000053188
          0.000015787 0.000013286 7.264e-7 0.000016909 0.000012978 -0.0000020141
          0.000016723 0.00001038 0.0000080403 0.000017171 0.000012145 0.000004837
          0.000015851 0.000012287 -0.0000045762 0.000017019 0.0000097031 -0.0000085408
          0.000014832 0.0000072035 0.000011463 0.000016285 0.0000063865 -0.000011317
          0.000016807 0.0000043604 0.000012352 0.000014854 0.0000022549 0.000013402
          0.00001687 0.0000022615 -0.000012573 0.00001521 -0.0000021418 0.000013205
          0.000016372 -5.8595e-7 -0.000012892 0.000017115 -0.0000042256 0.000012273
          0.00001639 -0.0000062275 -0.000011367 0.000016961 -0.0000084771 0.0000098669
          0.000015045 -0.000011475 0.0000070198 0.000016989 -0.000012687 -0.0000024142
          0.000016806 -0.000011706 -0.0000054708 0.000016602 -0.000010281 -0.0000076545
          0.000016232 -0.000012858 0.0000025057 0.000015869 -0.000013116 -1.2539e-7
          0.000014693 0.000012863 0.0000048411 0.00001448 0.000013417 -0.0000025406
          0.000013412 0.000012682 -0.0000052153 0.000014178 0.00001103 -0.0000080218
          0.000014691 0.000009504 0.0000098923 0.000014467 0.0000091759 -0.000010056
          0.000014768 0.0000047969 -0.00001258 0.000014076 0.0000021371 -0.000013337
          0.0000126 -0.0000010363 0.000014013 0.000012628 -0.0000014856 -0.000013694
          0.000013168 -0.0000036877 0.00001339 0.000014714 -0.0000046076 -0.000012502
          0.000014584 -0.0000060058 0.000012163 0.000012816 -0.0000063147 -0.000012222
          0.000014274 -0.0000094897 0.0000098782 0.000014345 -0.000008131 -0.000010756
          0.00001378 -0.000011063 -0.000007921 0.00001388 -0.000012726 0.0000051766
          0.000012986 -0.000013665 0.000002272 0.000013415 -0.000013687 -0.0000010118
          0.000013545 -0.000013199 -0.0000034742 0.000011496 0.000013908 0.0000038545
          0.000012012 0.000014296 5.4038e-7 0.000011389 0.00001417 -0.000002534
          0.000010527 0.000013386 -0.000005038 0.000012007 0.000012188 0.000007359
          0.000011835 0.000012303 -0.0000071231 0.000011852 0.0000097652 0.00001039
          0.000011867 0.0000095892 -0.000010415 0.000011934 0.0000070185 0.000012371
          0.00001231 0.0000058777 -0.00001261 0.000011174 0.0000047385 0.000013549
          0.000011343 0.0000014906 0.000014202 0.000010865 7.7925e-7 -0.000014098
          0.000011541 -0.0000042646 -0.000013406 0.000012135 -0.0000072355 0.000012153
          0.000010143 -0.0000086937 0.000011513 0.000011729 -0.000010569 0.0000094443
          0.000012259 -0.000012207 0.0000070178 0.000011279 -0.000010826 -0.0000089041
          0.000011037 -0.000014261 6.6066e-7 0.000011681 -0.000012958 -0.0000055555
          0.0000090305 0.000013981 0.0000048604 0.0000095029 0.000014732 -3.4451e-7
          0.0000084124 0.000014234 -0.000003823 0.0000093229 0.000010028 0.000010786
          0.0000090818 0.000012017 0.0000085965 0.0000078058 0.000011691 -0.0000090826
          0.0000090197 0.0000095078 -0.000011127 0.000008814 0.0000071137 0.000012861
          0.0000081657 0.0000063514 -0.000013153 0.0000089086 0.0000028212 0.000014418
          0.0000084373 0.0000019108 -0.000014377 0.0000092326 -0.0000022911 0.000014424
          0.0000096976 -0.0000017232 -0.000014141 0.0000092767 -0.0000047727 0.000013786
          0.000009661 -0.0000075833 -0.000012229 0.0000091019 -0.0000054384 -0.000013388
          0.0000085991 -0.000010649 0.000010122 0.0000086245 -0.000010244 -0.000010347
          0.0000095 -0.000013045 0.0000063568 0.0000091422 -0.000014119 0.0000038096
          0.0000090929 -0.00001457 -9.9055e-7 0.0000091992 -0.00001368 -0.0000046749
          0.0000088671 -0.000012709 -0.0000070554 0.0000056973 0.000013211 0.0000073778
          0.0000071146 0.000014796 0.0000023307 0.0000060711 0.000014784 -0.0000030272
          0.0000068668 0.000011402 0.0000097993 0.000006501 0.0000098384 -0.000011127
          0.0000060486 0.0000086184 0.000012346 0.0000071892 0.0000049948 0.000014078
          0.0000049012 0.0000067243 -0.000013287 0.0000056878 0.000002586 0.000014772
          0.0000064087 0.0000047454 -0.000014027 0.0000072401 6.2009e-7 0.000014857
          0.0000067402 4.2362e-8 -0.000014738 0.0000065351 -0.0000023429 0.000014701