# vtk DataFile Version 4.2
vtk output
ASCII
DATASET UNSTRUCTURED_GRID
POINTS 849 float
4.23810E-06 5.76330E-06 3.62955E-08 4.14180E-06 1.10595E-06 5.89425E-06 5.15310E-06 3.86280E-06 3.24645E-06 
4.60275E-06 3.20775E-06 -4.41000E-06 6.53940E-06 -3.22770E-06 9.50370E-07 4.34820E-06 -3.71355E-07 -5.95365E-06 
4.38840E-06 -3.90150E-06 3.96495E-06 4.23390E-06 -5.88045E-06 -4.60935E-07 4.46505E-06 -3.90525E-06 -3.94620E-06 
7.58445E-07 4.08855E-06 5.88690E-06 6.89940E-07 6.56865E-06 2.88240E-06 8.12625E-07 7.12890E-06 -1.37289E-06 
4.71390E-07 5.54055E-06 -4.88265E-06 7.12725E-07 3.26175E-08 7.17825E-06 5.93505E-07 2.00100E-07 -7.11135E-06 
4.90020E-07 -4.88220E-06 5.49105E-06 4.96845E-07 -6.92340E-06 1.99965E-06 9.97065E-07 -5.33250E-06 -4.64895E-06 
-3.08490E-06 6.54780E-06 2.95005E-07 -3.31965E-06 1.88970E-06 6.07305E-06 -3.16170E-06 3.50145E-07 -6.44790E-06 
-1.51185E-06 -3.03015E-06 -6.52665E-06 -3.35295E-06 -6.47715E-06 -2.34975E-07 -4.60065E-06 4.35300E-06 3.53850E-06 
-5.98395E-06 4.17180E-06 -7.27680E-08 -4.33275E-06 4.38720E-06 -3.59970E-06 -7.08405E-06 2.93625E-07 1.95540E-07 
-5.43375E-06 -8.51535E-07 4.53345E-06 -6.13755E-06 1.07200E-07 -3.58770E-06 -3.80370E-06 -4.27485E-06 4.35195E-06 
-6.06720E-06 -3.89220E-06 9.32280E-08 -4.94820E-06 -3.49755E-06 -3.59310E-06 1.80911E-05 7.65200E-06 1.36340E-06 
1.98098E-05 5.22240E-06 7.02250E-07 1.82373E-05 7.18210E-06 -1.17710E-06 1.93425E-05 3.97430E-06 4.70310E-06 
2.05982E-05 2.79080E-06 1.87220E-06 1.98586E-05 3.94580E-06 -3.15560E-06 2.09523E-05 1.95100E-06 -1.76420E-06 
1.93454E-05 1.93690E-06 -5.65950E-06 1.78102E-05 -3.32930E-07 8.16380E-06 2.02040E-05 5.00450E-08 4.36780E-06 
2.11057E-05 -7.69190E-07 2.85020E-07 2.08763E-05 -1.40350E-06 -2.48580E-06 1.90028E-05 -7.42710E-07 -6.47250E-06 
1.90716E-05 -2.76730E-06 6.01460E-06 2.04033E-05 -3.19140E-06 3.00200E-06 2.06455E-05 -3.51350E-06 6.10620E-08 
1.95848E-05 -2.95090E-06 -4.88760E-06 1.92121E-05 -5.56700E-06 3.13930E-06 1.86860E-05 -6.84300E-06 5.82560E-07 
1.93124E-05 -5.77110E-06 -2.24760E-06 1.79435E-05 -5.22640E-06 -5.44760E-06 1.60771E-05 9.34190E-06 2.74810E-06 
1.60413E-05 9.63420E-06 -6.03180E-08 1.62405E-05 9.13770E-06 -2.67160E-06 1.72268E-05 7.48430E-06 4.62410E-06 
1.68813E-05 7.48130E-06 -4.66070E-06 1.48243E-05 7.46610E-06 -7.19990E-06 1.68612E-05 4.60620E-06 7.73490E-06 
1.75908E-05 5.09330E-06 -6.36730E-06 1.55668E-05 2.63620E-06 9.76530E-06 1.66132E-05 2.19830E-06 -8.72740E-06 
1.57288E-05 -7.02680E-07 1.02000E-05 1.57073E-05 -1.97210E-08 -9.76080E-06 1.73128E-05 -2.48510E-06 -8.00200E-06 
1.75994E-05 -5.18160E-06 6.87400E-06 1.72683E-05 -7.34180E-06 4.96810E-06 1.76640E-05 -7.25600E-06 -3.98650E-06 
1.60886E-05 -5.80250E-06 -7.70730E-06 1.48960E-05 -9.53930E-06 4.61530E-06 1.69816E-05 -8.87660E-06 -4.14840E-07 
1.51454E-05 -8.33630E-06 -6.25970E-06 1.53833E-05 -1.01100E-05 1.56690E-06 1.45687E-05 -9.89730E-06 -4.27570E-06 
1.07013E-05 1.17820E-05 5.11160E-06 1.33549E-05 1.12640E-05 2.53660E-06 1.13566E-05 1.23940E-05 -1.25740E-06 
1.14824E-05 1.00500E-05 7.57170E-06 1.37939E-05 1.00850E-05 5.28890E-06 1.31737E-05 9.64200E-06 -6.30120E-06 
1.18887E-05 7.36350E-06 9.91290E-06 1.41367E-05 7.57550E-06 7.84830E-06 1.25650E-05 7.34100E-06 -9.19030E-06 
1.37541E-05 4.98820E-06 1.03190E-05 1.39305E-05 3.46140E-06 -1.05000E-05 1.14875E-05 2.29480E-06 -1.21200E-05 
1.37524E-05 -2.11880E-06 -1.09630E-05 1.08805E-05 -4.67700E-07 -1.26240E-05 1.40968E-05 -4.38330E-06 1.03520E-05 
1.06016E-05 -3.49070E-06 -1.22240E-05 1.26885E-05 -6.78800E-06 1.01340E-05 1.34460E-05 -6.31030E-06 -9.50960E-06 
1.41322E-05 -8.18790E-06 7.81180E-06 1.28557E-05 -8.44590E-06 -8.25130E-06 1.18427E-05 -1.07090E-05 6.41700E-06 
1.23821E-05 -1.17540E-05 2.86090E-06 1.35209E-05 -1.15810E-05 -1.64570E-07 1.20446E-05 -1.18420E-05 -3.12670E-06 
1.22870E-05 -1.01710E-05 -6.41750E-06 1.07013E-05 -1.29090E-05 8.27640E-07 7.09487E-06 1.40100E-05 -1.63380E-07 
1.04810E-05 1.26340E-05 1.84120E-06 1.00303E-05 1.23180E-05 -4.18340E-06 7.08512E-06 1.18790E-05 -7.24160E-06 
9.44285E-06 1.01340E-05 -8.27360E-06 9.24805E-06 6.52120E-06 -1.13520E-05 8.38827E-06 4.91900E-06 1.28220E-05 
7.90319E-06 4.37950E-06 -1.28280E-05 1.01116E-05 2.47970E-06 1.29210E-05 1.05585E-05 -1.88900E-06 1.28690E-05 
7.23018E-06 -2.20450E-06 -1.35800E-05 7.07365E-06 -3.06120E-06 1.39300E-05 8.27259E-06 -5.50140E-06 1.27390E-05 
8.01112E-06 -5.85660E-06 -1.23000E-05 1.01550E-05 -8.70680E-06 1.00840E-05 9.59480E-06 -8.14210E-06 -1.01450E-05 
1.02406E-05 -1.19290E-05 -5.33480E-06 9.48801E-06 -1.01420E-05 -8.54480E-06 9.51854E-06 -1.23930E-05 5.24120E-06 
9.64826E-06 -1.32080E-05 -1.86010E-06 7.04441E-06 -1.23940E-05 -6.52230E-06 6.27909E-06 1.32470E-05 4.78300E-06 
5.08704E-06 1.41350E-05 2.44210E-06 4.34853E-06 1.37810E-05 -3.97120E-06 6.08902E-06 1.21580E-05 7.64660E-06 
6.24928E-06 1.04580E-05 -9.40860E-06 6.78051E-06 9.71490E-06 1.00930E-05 5.77452E-06 6.65570E-06 1.28450E-05 
6.09575E-06 7.59180E-06 -1.18860E-05 3.42783E-06 4.89350E-06 1.40740E-05 3.58049E-06 4.27190E-06 -1.38430E-05 
5.46131E-06 2.61400E-06 1.43480E-05 6.75170E-06 7.47010E-07 -1.38790E-05 5.58846E-06 -5.60770E-07 1.45270E-05 
3.63008E-06 -6.28960E-07 -1.44640E-05 3.44345E-06 -2.62880E-06 1.47170E-05 4.92535E-06 -4.64340E-06 -1.34600E-05 
4.70302E-06 -6.95840E-06 1.28860E-05 6.85864E-06 -9.75500E-06 1.03970E-05 3.70376E-06 -7.68900E-06 -1.22180E-05 
5.44354E-06 -1.04930E-05 -9.74750E-06 6.48895E-06 -1.27470E-05 6.54500E-06 4.65915E-06 -1.41850E-05 3.73970E-06 
6.40194E-06 -1.42680E-05 9.37870E-07 6.26519E-06 -1.40410E-05 -2.18800E-06 3.56779E-07 1.40080E-05 4.94520E-06 
3.07978E-06 1.47470E-05 2.73520E-07 9.57668E-07 1.38730E-05 -4.84520E-06 3.23001E-06 1.06060E-05 1.03860E-05 
2.51286E-06 1.26060E-05 7.91720E-06 2.69591E-06 1.26380E-05 -7.05330E-06 2.62510E-06 1.03510E-05 -1.02040E-05 
9.18893E-07 7.58490E-06 1.29270E-05 1.67323E-06 7.56380E-06 -1.25200E-05 1.11774E-06 2.63980E-06 1.48450E-05 
1.41980E-07 2.94380E-06 -1.43470E-05 2.13457E-06 5.10740E-08 1.50430E-05 4.81534E-07 -3.71410E-06 -1.42590E-05 
1.55434E-06 -5.13890E-06 1.41600E-05 9.52364E-07 -8.45460E-06 1.25140E-05 3.05929E-06 -1.02790E-05 1.07050E-05 
1.93432E-06 -1.11390E-05 -9.71140E-06 2.46899E-06 -1.26080E-05 7.93310E-06 2.85435E-07 -1.41340E-05 5.14600E-06 
3.35026E-07 -1.48030E-05 2.34870E-06 2.87466E-06 -1.48110E-05 -1.10980E-06 2.67813E-06 -1.43970E-05 -3.58370E-06 
3.32247E-06 -1.28130E-05 -7.16510E-06 -2.79118E-06 1.43030E-05 3.22210E-06 -5.40799E-07 1.48840E-05 1.23190E-06 
-4.80236E-07 1.48360E-05 -1.30410E-06 -9.80021E-07 1.28740E-05 -7.26460E-06 -3.32477E-07 1.11380E-05 1.00250E-05 
-2.87604E-06 1.25770E-05 7.64900E-06 -2.45934E-06 1.03380E-05 -1.03880E-05 -2.81641E-06 7.49150E-06 1.28980E-05 
-1.31946E-06 6.15950E-06 -1.33680E-05 -1.18300E-06 4.94870E-06 1.42450E-05 -3.43910E-06 3.34930E-06 -1.41060E-05 
-2.89066E-06 2.23210E-06 1.48170E-05 -6.84703E-07 4.08710E-07 -1.45550E-05 -1.60199E-06 -1.80580E-06 1.49430E-05 
-3.53070E-06 -2.41840E-06 -1.43440E-05 -2.60125E-06 -5.28230E-06 1.40780E-05 -3.00749E-06 -5.15450E-06 -1.37090E-05 
-3.09192E-06 -8.86770E-06 1.19930E-05 -4.05382E-07 -7.38560E-06 -1.27150E-05 -2.24102E-06 -1.10010E-05 1.01000E-05 
-3.30693E-06 -1.08950E-05 -9.77810E-06 -2.10829E-06 -1.25340E-05 8.07690E-06 -2.82702E-06 -1.43540E-05 3.71950E-06 
-1.27259E-06 -1.46250E-05 -2.84580E-06 -1.47857E-06 -1.37920E-05 -5.70650E-06 -7.89818E-07 -1.24190E-05 -8.10610E-06 
-6.38211E-06 1.29380E-05 6.08740E-06 -6.53663E-06 1.37000E-05 3.45920E-06 -6.58150E-06 1.40470E-05 8.86850E-07 
-4.00588E-06 1.41600E-05 -3.67460E-06 -4.60721E-06 1.30980E-05 -5.98930E-06 -5.01288E-06 1.05980E-05 1.00350E-05 
-5.68086E-06 1.17500E-05 -8.05050E-06 -5.93831E-06 8.26860E-06 1.17870E-05 -7.00623E-06 1.00360E-05 -9.68940E-06 
-4.18492E-06 7.81080E-06 -1.21650E-05 -5.07839E-06 5.64280E-06 1.34870E-05 -6.86188E-06 2.60040E-06 -1.36440E-05 
-5.21141E-06 -2.28900E-06 1.45030E-05 -6.97613E-06 -3.52560E-06 -1.35760E-05 -5.10390E-06 -6.99380E-06 1.29210E-05 
-5.20496E-06 -7.84140E-06 -1.20820E-05 -6.14028E-06 -1.05920E-05 9.93000E-06 -5.41353E-06 -1.28270E-05 7.06670E-06 
-4.56994E-06 -1.45570E-05 1.49490E-06 -7.02472E-06 -1.40280E-05 -1.59470E-06 -5.24882E-06 -1.37190E-05 -4.17190E-06 
-4.58313E-06 -1.26170E-05 -7.35310E-06 -8.87186E-06 1.34940E-05 -9.72220E-07 -8.05350E-06 1.27750E-05 -5.27220E-06 
-7.70131E-06 1.15190E-05 7.97610E-06 -9.99439E-06 1.24850E-05 4.56240E-06 -1.07378E-05 1.23930E-05 -3.60800E-06 
-8.79087E-06 9.36820E-06 1.01100E-05 -8.79030E-06 6.59950E-06 1.20910E-05 -7.77957E-06 6.08710E-06 -1.23060E-05 
-7.92421E-06 3.94520E-06 1.32160E-05 -7.95632E-06 5.47890E-07 1.40860E-05 -8.66673E-06 -2.35000E-06 1.36690E-05 
-8.38793E-06 -4.93660E-07 -1.35610E-05 -7.94915E-06 -5.01680E-06 1.30480E-05 -8.80076E-06 -6.10060E-06 -1.20970E-05 
-7.94385E-06 -8.42040E-06 1.11430E-05 -9.38389E-06 -1.04450E-05 8.79400E-06 -8.23527E-06 -1.13630E-05 -7.49600E-06 
-7.78860E-06 -9.89540E-06 -9.67910E-06 -8.11256E-06 -1.32530E-05 4.16060E-06 -8.01165E-06 -1.39280E-05 8.32880E-07 
-8.21204E-06 -1.27550E-05 -5.35660E-06 -1.10129E-05 1.26510E-05 1.27540E-06 -1.27855E-05 1.04240E-05 5.90570E-06 
-1.42188E-05 1.10010E-05 1.35300E-06 -1.28469E-05 1.18800E-05 -1.24090E-06 -1.09602E-05 1.04350E-05 -7.14560E-06 
-1.09463E-05 8.01840E-06 -9.77890E-06 -1.32596E-05 5.97790E-06 1.03030E-05 -1.14017E-05 5.28640E-06 -1.12020E-05 
-1.21593E-05 2.41520E-06 1.23550E-05 -1.14040E-05 2.38380E-06 -1.23660E-05 -1.12790E-05 -3.03710E-07 1.29870E-05 
-1.17822E-05 -2.47270E-07 -1.23880E-05 -1.12160E-05 -3.18270E-06 -1.22000E-05 -1.19492E-05 -4.97700E-06 1.16740E-05 
-1.41141E-05 -5.49550E-06 -9.46900E-06 -1.16932E-05 -7.72860E-06 1.01110E-05 -1.18074E-05 -7.47600E-06 -9.97890E-06 
-1.23548E-05 -1.04590E-05 6.70330E-06 -1.15309E-05 -1.15710E-05 -5.10320E-06 -1.11314E-05 -9.97980E-06 -8.01260E-06 
-1.13011E-05 -1.25510E-05 2.99500E-06 -1.21582E-05 -1.24030E-05 4.03600E-07 -1.13781E-05 -1.24830E-05 -2.74400E-06 
[...]
CELL_DATA 3
FIELD FieldData 2
cell_id 1 3 int
0 1 2
METADATA
INFORMATION 0
cell_type_id 1 3 int
3 0 2
METADATA
INFORMATION 0

