# vtk DataFile Version 4.2
vtk output
ASCII
DATASET UNSTRUCTURED_GRID
POINTS 270 float
3.70560E-06 4.80390E-06 -1.91620E-05 3.44350E-06 4.81680E-06 -2.21880E-05 4.00400E-06 2.37870E-06 -1.64150E-05 
4.69500E-06 2.29170E-06 -2.02360E-05 4.08140E-06 2.48630E-06 -2.32540E-05 2.65490E-06 2.16620E-06 -2.60220E-05 
4.81790E-06 -7.72540E-07 -2.12890E-05 4.37960E-06 -2.59310E-06 -1.78800E-05 4.19630E-06 -3.36110E-06 -2.15510E-05 
3.60160E-06 -2.70680E-06 -2.41780E-05 2.99680E-06 -5.12710E-06 -2.28850E-05 1.90110E-07 8.23310E-06 -1.77980E-05 
1.46710E-07 8.51440E-06 -2.03950E-05 2.07680E-06 6.98460E-06 -1.95620E-05 1.42300E-06 7.23420E-06 -2.21570E-05 
2.35230E-06 4.98600E-06 -1.55860E-05 2.25660E-06 4.76620E-06 -2.48360E-05 2.54730E-06 2.46070E-06 -1.39910E-05 
2.45630E-07 1.48170E-06 -2.83490E-05 2.32990E-06 -1.97310E-06 -2.64660E-05 2.36530E-06 -2.80720E-06 -1.39280E-05 
1.45060E-06 -5.21680E-06 -1.45370E-05 2.56910E-06 -5.53460E-06 -1.67990E-05 2.57830E-06 -6.42470E-06 -1.97870E-05 
1.41240E-06 -5.54670E-06 -2.52170E-05 1.04880E-06 -7.62070E-06 -2.18560E-05 -2.36510E-06 8.94450E-06 -1.65110E-05 
-1.94360E-06 9.45610E-06 -1.90800E-05 -1.96710E-06 9.37320E-06 -2.16130E-05 -2.37270E-06 8.74360E-06 -2.40000E-05 
-3.06370E-07 7.40890E-06 -1.52250E-05 -4.64440E-07 7.36710E-06 -2.49890E-05 -2.32990E-06 4.58260E-06 -1.15570E-05 
3.20460E-08 4.99030E-06 -1.29720E-05 5.19610E-08 4.90200E-06 -2.70870E-05 -2.25020E-06 4.69160E-06 -2.83540E-05 
-5.76110E-07 2.48140E-06 -1.13920E-05 -2.41230E-06 2.26220E-06 -2.93670E-05 -1.35350E-07 -1.74200E-06 -1.14770E-05 
-7.27500E-10 -4.41450E-06 -1.25970E-05 -1.23860E-07 -4.90470E-06 -2.71840E-05 -1.10650E-07 -2.53840E-06 -2.83100E-05 
-5.58040E-09 -7.82970E-06 -1.63230E-05 -3.38500E-07 -8.74790E-06 -1.96760E-05 -1.26200E-07 -7.58400E-06 -2.42680E-05 
-4.87670E-06 9.19720E-06 -1.61890E-05 -4.43450E-06 9.89460E-06 -1.87450E-05 -4.51770E-06 9.88830E-06 -2.12710E-05 
-4.68050E-06 8.52790E-06 -2.51520E-05 -4.83420E-06 7.01260E-06 -1.29050E-05 -4.59640E-06 6.54470E-06 -2.75210E-05 
-4.80830E-06 4.04110E-06 -1.08730E-05 -4.87720E-06 4.39250E-06 -2.89510E-05 -4.90660E-06 1.51960E-06 -1.01290E-05 
-4.90370E-06 1.78960E-06 -2.98170E-05 -2.60770E-06 -8.51410E-07 -1.03350E-05 -3.33860E-06 -5.99650E-07 -2.98200E-05 
-2.52980E-06 -3.35860E-06 -1.09430E-05 -2.50780E-06 -2.95200E-06 -2.92060E-05 -2.60560E-06 -5.70430E-06 -1.21910E-05 
-2.44790E-06 -5.21100E-06 -2.80940E-05 -2.49650E-06 -7.68640E-06 -1.41380E-05 -2.83450E-06 -9.35820E-06 -1.74880E-05 
-2.79360E-06 -9.60110E-06 -2.11780E-05 -2.44420E-06 -7.76150E-06 -2.57260E-05 -7.35940E-06 9.58250E-06 -1.87920E-05 
-7.01370E-06 9.60320E-06 -2.17150E-05 -6.75540E-06 5.40200E-06 -1.18240E-05 -7.35200E-06 2.71770E-06 -1.06850E-05 
-7.41970E-06 2.88990E-06 -2.92570E-05 -5.16440E-06 -3.60760E-06 -1.06980E-05 -5.00550E-06 -2.69180E-06 -2.96190E-05 
-5.49960E-06 -7.27990E-06 -1.32530E-05 -4.94070E-06 -5.08670E-06 -2.85850E-05 -5.30070E-06 -8.97750E-06 -1.57900E-05 
-5.36080E-06 -9.91500E-06 -1.99530E-05 -5.51620E-06 -9.17090E-06 -2.37700E-05 -4.93890E-06 -7.60890E-06 -2.64100E-05 
-7.45440E-06 8.03980E-06 -1.47180E-05 -9.69490E-06 8.64670E-06 -2.14060E-05 -7.49770E-06 7.65510E-06 -2.58140E-05 
-9.65300E-06 5.44070E-06 -1.30450E-05 -9.78650E-06 7.15610E-06 -1.50300E-05 -7.91410E-06 5.21950E-06 -2.79810E-05 
-8.72820E-06 4.28220E-07 -1.07380E-05 -8.24280E-06 3.62540E-07 -2.94280E-05 -7.42840E-06 -1.82130E-06 -1.04940E-05 
-7.46730E-06 -2.15010E-06 -2.94190E-05 -7.52040E-06 -5.97330E-06 -1.24380E-05 -7.44890E-06 -5.21650E-06 -2.81500E-05 
-7.64980E-06 -7.77760E-06 -1.44330E-05 -7.58570E-06 -9.11580E-06 -1.70720E-05 -7.86530E-06 -9.47480E-06 -1.96200E-05 
-8.15520E-06 -9.07520E-06 -2.24720E-05 -7.46220E-06 -7.72600E-06 -2.57290E-05 -1.03900E-05 7.93270E-06 -1.74270E-05 
-9.99120E-06 7.56940E-06 -2.40320E-05 -1.21100E-05 5.15790E-06 -1.52530E-05 -1.16200E-05 7.44210E-06 -1.99820E-05 
-1.01830E-05 5.10600E-06 -2.67740E-05 -1.01820E-05 3.12510E-06 -1.20730E-05 -1.02300E-05 2.76430E-06 -2.80180E-05 
-1.11190E-05 6.69640E-07 -1.21370E-05 -1.00310E-05 -2.05970E-06 -1.16360E-05 -1.01730E-05 -1.39760E-06 -2.83920E-05 
-1.08740E-05 -4.31340E-06 -1.31810E-05 -1.01940E-05 -3.80580E-06 -2.76220E-05 -1.01830E-05 -6.53000E-06 -1.45450E-05 
-9.95170E-06 -6.02110E-06 -2.62420E-05 -1.01110E-05 -7.87990E-06 -1.68430E-05 -1.01710E-05 -8.42550E-06 -1.94410E-05 
-1.11760E-05 -7.64880E-06 -2.16550E-05 -1.00990E-05 -7.52940E-06 -2.39830E-05 -1.30630E-05 5.75400E-06 -1.87130E-05 
-1.31130E-05 5.52330E-06 -2.16390E-05 -1.24800E-05 5.09820E-06 -2.41430E-05 -1.24760E-05 2.92330E-06 -1.40590E-05 
-1.36320E-05 3.41490E-06 -1.63030E-05 -1.43870E-05 3.26750E-06 -1.97470E-05 -1.42830E-05 2.69760E-06 -2.21850E-05 
-1.24630E-05 2.53430E-06 -2.61020E-05 -1.34450E-05 5.78820E-07 -1.47790E-05 -1.45930E-05 1.19290E-06 -1.74610E-05 
-1.37410E-05 3.04920E-07 -2.46950E-05 -1.48540E-05 -1.26200E-06 -1.90400E-05 -1.47070E-05 -1.31790E-06 -2.18460E-05 
-1.25060E-05 -1.03030E-06 -2.64840E-05 -1.30470E-05 -3.19410E-06 -1.49970E-05 -1.39920E-05 -4.21120E-06 -1.98020E-05 
-1.39780E-05 -3.67930E-06 -2.23010E-05 -1.29180E-05 -3.21000E-06 -2.51620E-05 -1.24540E-05 -5.57560E-06 -1.64250E-05 
-1.25350E-05 -6.37240E-06 -1.89780E-05 -1.29500E-05 -5.87280E-06 -2.14090E-05 -1.24260E-05 -5.47130E-06 -2.38420E-05 
1.36990E-05 4.81510E-06 2.08220E-05 1.35100E-05 4.76310E-06 1.79270E-05 1.44550E-05 2.51700E-06 2.19060E-05 
1.46160E-05 2.50100E-06 1.90780E-05 1.39040E-05 2.32970E-06 1.61130E-05 1.26650E-05 2.07300E-06 1.39400E-05 
1.49010E-05 -1.05070E-07 2.13080E-05 1.48680E-05 -4.07700E-07 1.87720E-05 1.42640E-05 -2.91160E-06 2.20730E-05 
1.41430E-05 -3.33280E-06 1.81430E-05 1.34410E-05 -2.53320E-06 1.53850E-05 1.34430E-05 -5.23370E-06 2.02230E-05 
1.02120E-05 8.22830E-06 2.21760E-05 1.03250E-05 8.42090E-06 1.94730E-05 1.22130E-05 6.81710E-06 2.10900E-05 
1.15040E-05 7.10540E-06 1.76030E-05 1.25710E-05 4.50890E-06 2.46250E-05 1.24150E-05 4.46440E-06 1.50640E-05 
1.25610E-05 2.41540E-06 2.60150E-05 1.01810E-05 1.84240E-06 1.17000E-05 1.25180E-05 -2.50460E-06 2.60250E-05 
1.18860E-05 -2.68910E-06 1.33630E-05 1.16370E-05 -4.98610E-06 2.54400E-05 1.25620E-05 -5.90610E-06 2.25580E-05 
1.23530E-05 -6.26150E-06 1.76440E-05 1.13960E-05 -5.64480E-06 1.48500E-05 1.14040E-05 -7.52680E-06 2.06100E-05 
7.92600E-06 9.14550E-06 2.27410E-05 7.91600E-06 9.49320E-06 1.92360E-05 7.63120E-06 8.96650E-06 1.65730E-05 
9.65460E-06 7.50670E-06 2.46280E-05 9.63580E-06 7.46220E-06 1.52740E-05 7.63910E-06 5.01480E-06 2.81880E-05 
1.00410E-05 4.98810E-06 2.70230E-05 9.97490E-06 4.88290E-06 1.28570E-05 7.64890E-06 4.35200E-06 1.14100E-05 
9.40720E-06 2.42770E-06 2.86390E-05 7.82030E-06 1.67470E-06 1.05800E-05 9.69300E-06 -1.99080E-06 2.85690E-05 
1.00630E-05 -4.38810E-06 2.73710E-05 9.91010E-06 -2.61510E-06 1.17220E-05 9.86330E-06 -5.06280E-06 1.29160E-05 
1.00670E-05 -7.83250E-06 2.35340E-05 9.29520E-06 -8.91060E-06 2.04590E-05 9.93620E-06 -7.76110E-06 1.60930E-05 
5.12130E-06 8.50500E-06 2.51680E-05 5.45960E-06 9.62320E-06 2.26110E-05 5.33070E-06 9.87930E-06 1.87380E-05 
5.26470E-06 8.59670E-06 1.49570E-05 5.34920E-06 6.92590E-06 2.71820E-05 5.35570E-06 6.98120E-06 1.28670E-05 
5.08450E-06 4.83700E-06 2.87290E-05 5.09220E-06 4.71280E-06 1.12090E-05 5.14040E-06 2.33080E-06 2.97090E-05 
5.09140E-06 2.01520E-06 1.02280E-05 7.22670E-06 -1.05290E-06 2.96810E-05 7.40150E-06 -3.53260E-06 2.90120E-05 
7.53350E-06 -2.78700E-06 1.07490E-05 7.25320E-06 -5.93290E-06 2.76790E-05 7.57370E-06 -5.08820E-06 1.18380E-05 
7.53180E-06 -7.68520E-06 2.58450E-05 7.16990E-06 -9.34760E-06 2.25600E-05 7.11950E-06 -9.65030E-06 1.93130E-05 
6.95400E-06 -8.51510E-06 1.52830E-05 2.98150E-06 9.05190E-06 2.36290E-05 2.69100E-06 9.62630E-06 2.08070E-05 
2.75520E-06 9.48420E-06 1.80740E-05 2.60780E-06 5.07240E-06 2.82530E-05 2.99180E-06 7.33930E-06 2.63980E-05 
2.63090E-06 2.76710E-06 2.92990E-05 2.65700E-06 2.77200E-06 1.06960E-05 2.93020E-06 5.53210E-08 2.97590E-05 
4.73060E-06 -3.35140E-06 2.93880E-05 5.00020E-06 -2.54890E-06 1.03360E-05 4.99750E-06 -7.46030E-06 2.65760E-05 
5.00260E-06 -5.15810E-06 1.14660E-05 4.62280E-06 -9.10690E-06 2.39360E-05 4.96880E-06 -9.87770E-06 2.09370E-05 
4.99330E-06 -9.43200E-06 1.69090E-05 5.03460E-06 -7.65950E-06 1.36490E-05 2.26000E-06 7.58460E-06 1.41980E-05 
2.80780E-07 5.52200E-06 2.68360E-05 2.00710E-07 7.28910E-06 2.47260E-05 2.33490E-06 5.03090E-06 1.18210E-05 
4.89890E-07 1.48730E-07 2.88840E-05 2.28650E-06 8.95380E-08 1.03910E-05 1.82340E-06 -2.31350E-06 2.91880E-05 
2.54640E-06 -3.14640E-06 1.08480E-05 2.56630E-06 -5.63390E-06 2.78710E-05 2.51560E-06 -5.54160E-06 1.20650E-05 
2.31450E-06 -7.87750E-06 2.54080E-05 2.30850E-06 -9.20770E-06 2.25590E-05 2.05710E-06 -9.16700E-06 1.76380E-05 
2.51940E-06 -7.53360E-06 1.40040E-05 -1.61050E-07 8.42790E-06 2.06130E-05 -1.35320E-06 7.54540E-06 1.84930E-05 
-1.76630E-08 7.64650E-06 1.61300E-05 -1.30450E-06 7.30130E-06 2.25340E-05 -9.40660E-07 5.15230E-06 1.38970E-05 
-5.02460E-07 2.91460E-06 2.77690E-05 -2.13340E-06 5.01290E-06 2.48490E-05 1.13520E-08 3.30830E-06 1.20170E-05 
-2.16460E-06 1.55110E-07 2.69000E-05 -1.04080E-06 6.74370E-07 1.20680E-05 -6.77110E-07 -2.33460E-06 2.78800E-05 
2.17980E-08 -1.55820E-06 1.15070E-05 -4.51000E-07 -4.68050E-06 2.68850E-05 -2.80600E-07 -3.85280E-06 1.24620E-05 
-3.82380E-08 -6.70940E-06 2.53430E-05 6.35760E-08 -6.02960E-06 1.37570E-05 -2.14340E-07 -7.84080E-06 2.30900E-05 
-2.41500E-08 -8.51460E-06 2.06140E-05 -1.04730E-06 -7.74860E-06 1.84230E-05 -1.21000E-07 -7.50930E-06 1.60060E-05 
-3.12880E-06 5.77240E-06 2.02620E-05 -2.45480E-06 5.39920E-06 1.61070E-05 -2.45450E-06 2.82150E-06 2.60110E-05 
-3.66120E-06 3.39920E-06 2.36230E-05 -4.26650E-06 3.51490E-06 2.11020E-05 -4.20630E-06 3.53670E-06 1.84940E-05 
-2.49100E-06 2.57400E-06 1.39500E-05 -3.90980E-06 9.24450E-08 2.43500E-05 -4.76080E-06 1.88010E-07 2.16880E-05 
-4.85640E-06 4.66420E-07 1.90040E-05 -3.75130E-06 2.96350E-07 1.53260E-05 -4.22720E-06 -2.37840E-06 2.27500E-05 
-4.66450E-06 -2.19980E-06 2.02030E-05 -4.43950E-06 -1.87830E-06 1.75480E-05 -2.50840E-06 -9.97820E-07 1.35100E-05 
-2.78060E-06 -3.10890E-06 2.54160E-05 -3.89150E-06 -4.14650E-06 1.84560E-05 -2.56150E-06 -3.35320E-06 1.44720E-05 
-2.47680E-06 -5.67490E-06 2.33250E-05 -2.42250E-06 -6.55780E-06 2.03270E-05 -2.45660E-06 -5.59790E-06 1.64750E-05 

CELLS 2 2132
1065 266 3 0 3 1 3 0 1 13 3 0 13 15 3 0 15 2 3 0 2 3 3 1 3 4 3 1 4 16 3 1 16 14 3 1 14 13 3 2 7 3 3 2 15 17 3 2 17 20 3 2 20 7 3 3 7 6 3 3 6 4 3 4 6 9 3 4 9 5 3 4 5 16 3 5 34 16 3 5 18 34 3 5 19 18 3 5 9 19 3 6 7 8 3 6 8 9 3 7 20 22 3 7 22 23 3 7 23 8 3 8 10 9 3 8 23 10 3 9 24 19 3 9 10 24 3 10 23 25 3 10 25 24 3 11 13 12 3 11 12 27 3 11 27 26 3 11 26 30 3 11 30 15 3 11 15 13 3 12 13 14 3 12 28 27 3 12 14 28 3 14 31 28 3 14 16 31 3 15 30 33 3 15 33 17 3 16 34 31 3 17 33 36 3 17 36 38 3 17 38 20 3 18 19 41 3 18 41 56 3 18 56 37 3 18 37 35 3 18 35 34 3 19 24 40 3 19 40 41 3 20 38 39 3 20 39 21 3 20 21 22 3 21 42 22 3 21 61 42 3 21 39 61 3 22 42 23 3 23 43 25 3 23 42 43 3 24 25 44 3 24 44 40 3 25 63 44 3 25 43 63 3 26 49 30 3 26 45 49 3 26 46 45 3 26 27 46 3 27 47 46 3 27 28 47 3 28 31 29 3 28 29 47 3 29 31 48 3 29 48 47 3 30 32 33 3 30 49 32 3 31 34 35 3 31 35 50 3 31 50 48 3 32 53 36 3 32 36 33 3 32 49 51 3 32 51 53 3 35 52 50 3 35 37 52 3 36 55 38 3 36 53 55 3 37 54 52 3 37 56 54 3 38 57 39 3 38 55 57 3 39 59 61 3 39 57 59 3 40 60 41 3 40 64 60 3 40 44 64 3 41 58 56 3 41 60 58 3 42 62 43 3 42 61 62 3 43 62 63 3 44 63 64 3 45 46 65 3 45 65 78 3 45 78 49 3 46 47 65 3 47 48 66 3 47 66 65 3 48 80 66 3 48 50 80 3 49 78 67 3 49 67 51 3 50 83 80 3 50 52 83 3 51 68 53 3 51 67 68 3 52 54 69 3 52 69 83 3 53 86 55 3 53 84 86 3 53 68 84 3 54 56 71 3 54 71 87 3 54 87 85 3 54 85 69 3 55 70 57 3 55 86 70 3 56 58 71 3 57 70 59 3 58 73 71 3 58 60 73 3 59 72 61 3 59 70 72 3 60 64 77 3 60 77 73 3 61 74 62 3 61 72 74 3 62 74 75 3 62 75 63 3 63 75 76 3 63 76 64 3 64 76 77 3 65 95 78 3 65 79 95 3 65 66 79 3 66 96 79 3 66 80 96 3 67 100 68 3 67 81 100 3 67 78 81 3 68 100 84 3 69 101 83 3 69 85 101 3 70 86 88 3 70 88 72 3 71 89 87 3 71 73 89 3 72 88 90 3 72 90 74 3 73 77 89 3 74 90 91 3 74 91 75 3 75 93 76 3 75 92 93 3 75 91 92 3 76 94 77 3 76 93 94 3 77 94 89 3 78 82 81 3 78 95 82 3 79 98 95 3 79 96 98 3 80 99 96 3 80 83 99 3 81 116 100 3 81 97 116 3 81 82 97 3 82 95 97 3 83 101 99 3 84 100 102 3 84 102 103 3 84 103 86 3 85 104 101 3 85 87 104 3 86 103 88 3 87 106 104 3 87 89 106 3 88 107 90 3 88 105 107 3 88 103 105 3 89 108 106 3 89 94 108 3 90 109 91 3 90 107 109 3 91 110 92 3 91 109 110 3 92 110 93 3 93 112 94 3 93 111 112 3 93 110 111 3 94 112 108 3 95 113 97 3 95 98 113 3 96 114 98 3 96 115 114 3 96 99 115 3 97 113 117 3 97 117 116 3 98 114 113 3 99 101 120 3 99 120 115 3 100 116 102 3 101 126 120 3 101 104 126 3 102 127 103 3 102 121 127 3 102 116 121 3 103 127 105 3 104 106 126 3 105 131 107 3 105 127 131 3 106 130 126 3 106 108 130 3 107 131 109 3 108 112 134 3 108 134 130 3 109 132 110 3 109 131 132 3 110 132 111 3 111 132 133 3 111 133 134 3 111 134 112 3 113 114 118 3 113 118 117 3 114 115 119 3 114 119 118 3 115 120 119 3 116 117 121 3 117 122 121 3 117 118 122 3 118 124 122 3 118 125 124 3 118 119 125 3 119 123 125 3 119 120 123 3 120 126 123 3 121 124 127 3 121 122 124 3 123 130 125 3 123 126 130 3 124 128 127 3 124 125 128 3 125 129 128 3 125 130 129 3 127 128 131 3 128 129 133 3 128 133 132 3 128 132 131 3 129 130 134 3 129 134 133 
1065 266 3 135 149 151 3 135 136 149 3 135 138 136 3 135 137 138 3 135 151 137 3 136 138 139 3 136 139 152 3 136 152 150 3 136 150 149 3 137 151 153 3 137 153 141 3 137 141 138 3 138 141 142 3 138 142 139 3 139 140 152 3 139 145 140 3 139 142 145 3 140 169 152 3 140 145 156 3 140 156 154 3 140 154 169 3 141 143 142 3 141 155 143 3 141 153 155 3 142 144 145 3 142 143 144 3 143 155 157 3 143 157 158 3 143 158 146 3 143 146 144 3 144 146 159 3 144 159 145 3 145 159 160 3 145 160 156 3 146 161 159 3 146 158 161 3 147 162 165 3 147 163 162 3 147 148 163 3 147 149 148 3 147 165 149 3 148 149 150 3 148 150 166 3 148 166 164 3 148 164 163 3 149 165 151 3 150 152 166 3 151 168 153 3 151 165 168 3 152 169 166 3 153 173 155 3 153 171 173 3 153 168 171 3 154 170 169 3 154 172 170 3 154 175 172 3 154 156 175 3 155 173 174 3 155 174 157 3 156 176 175 3 156 160 176 3 157 177 158 3 157 195 177 3 157 174 195 3 158 177 161 3 159 179 160 3 159 161 179 3 160 179 176 3 161 177 178 3 161 178 179 3 162 180 165 3 162 163 181 3 162 181 180 3 163 164 182 3 163 182 181 3 164 183 182 3 164 166 183 3 165 167 168 3 165 184 167 3 165 180 184 3 166 185 183 3 166 169 185 3 167 188 171 3 167 171 168 3 167 184 186 3 167 186 188 3 169 170 185 3 170 172 189 3 170 189 187 3 170 187 185 3 171 188 190 3 171 190 173 3 172 175 192 3 172 192 208 3 172 208 189 3 173 190 191 3 173 191 174 3 174 193 195 3 174 191 193 3 175 176 194 3 175 194 192 3 176 179 198 3 176 198 194 3 177 195 196 3 177 196 178 3 178 197 179 3 178 196 197 3 179 197 198 3 180 181 199 3 180 199 203 3 180 203 184 3 181 200 199 3 181 182 200 3 182 201 200 3 182 183 201 3 183 185 215 3 183 215 201 3 184 203 202 3 184 202 186 3 185 187 218 3 185 218 215 3 186 204 188 3 186 202 204 3 187 205 218 3 187 189 205 3 188 206 190 3 188 204 206 3 189 220 205 3 189 208 220 3 190 206 207 3 190 207 191 3 191 207 193 3 192 210 208 3 192 194 210 3 193 207 223 3 193 223 209 3 193 209 195 3 194 214 210 3 194 198 214 3 195 209 211 3 195 211 196 3 196 212 197 3 196 211 212 3 197 212 213 3 197 213 198 3 198 213 214 3 199 217 203 3 199 232 217 3 199 229 232 3 199 200 229 3 200 201 229 3 201 215 231 3 201 231 230 3 201 230 229 3 202 234 204 3 202 216 234 3 202 203 216 3 203 217 216 3 204 234 219 3 204 219 206 3 205 236 218 3 205 220 236 3 206 221 207 3 206 219 221 3 207 221 223 3 208 222 220 3 208 210 222 3 209 225 211 3 209 223 225 3 210 224 222 3 210 214 224 3 211 226 212 3 211 225 226 3 212 226 227 3 212 227 213 3 213 228 214 3 213 227 228 3 214 228 224 3 215 233 231 3 215 218 233 3 216 217 235 3 216 235 251 3 216 251 234 3 217 232 235 3 218 236 233 3 219 234 237 3 219 239 221 3 219 237 239 3 220 238 236 3 220 240 238 3 220 222 240 3 221 241 223 3 221 239 241 3 222 242 240 3 222 224 242 3 223 241 243 3 223 243 225 3 224 228 244 3 224 244 242 3 225 243 245 3 225 245 226 3 226 245 246 3 226 246 227 3 227 248 228 3 227 247 248 3 227 246 247 3 228 248 244 3 229 230 249 3 229 249 232 3 230 250 249 3 230 231 250 3 231 233 250 3 232 249 235 3 233 255 250 3 233 236 255 3 234 251 237 3 235 252 251 3 235 249 252 3 236 238 255 3 237 264 239 3 237 256 264 3 237 251 256 3 238 240 263 3 238 263 255 3 239 264 241 3 240 242 263 3 241 267 243 3 241 264 267 3 242 244 266 3 242 266 263 3 243 267 245 3 244 248 269 3 244 269 266 3 245 268 246 3 245 267 268 3 246 268 247 3 247 268 269 3 247 269 248 3 249 253 252 3 249 254 253 3 249 250 254 3 250 255 254 3 251 252 256 3 252 257 256 3 252 253 257 3 253 258 257 3 253 254 258 3 254 259 258 3 254 255 259 3 255 263 259 3 256 260 264 3 256 257 260 3 257 258 261 3 257 261 260 3 258 259 262 3 258 262 261 3 259 263 266 3 259 266 262 3 260 268 267 3 260 267 264 3 260 261 268 3 261 265 268 3 261 262 265 3 262 266 265 3 265 266 269 3 265 269 268 

CELL_TYPES 2
42
42

CELL_DATA 1
FIELD FieldData 2
Cell_id 1 1 int
1 2
METADATA
INFORMATION 0

Cell_type_id 1 1 int
5 5
METADATA
INFORMATION 0

