# vtk DataFile Version 4.2
vtk output
ASCII
DATASET UNSTRUCTURED_GRID
POINTS 4039 float
0.00000E+00 0.00000E+00 1.00000E-05 0.00000E+00 0.00000E+00 -1.00000E-05 1.30526E-06 0.00000E+00 9.91445E-06 
2.58819E-06 0.00000E+00 9.65926E-06 3.82683E-06 0.00000E+00 9.23880E-06 5.00000E-06 0.00000E+00 8.66025E-06 
6.08761E-06 0.00000E+00 7.93353E-06 7.07107E-06 0.00000E+00 7.07107E-06 7.93353E-06 0.00000E+00 6.08761E-06 
8.66025E-06 0.00000E+00 5.00000E-06 9.23880E-06 0.00000E+00 3.82683E-06 9.65926E-06 0.00000E+00 2.58819E-06 
9.91445E-06 0.00000E+00 1.30526E-06 1.00000E-05 0.00000E+00 6.12323E-22 9.91445E-06 0.00000E+00 -1.30526E-06 
9.65926E-06 0.00000E+00 -2.58819E-06 9.23880E-06 0.00000E+00 -3.82683E-06 8.66025E-06 0.00000E+00 -5.00000E-06 
7.93353E-06 0.00000E+00 -6.08761E-06 7.07107E-06 0.00000E+00 -7.07107E-06 6.08761E-06 0.00000E+00 -7.93353E-06 
5.00000E-06 0.00000E+00 -8.66025E-06 3.82683E-06 0.00000E+00 -9.23880E-06 2.58819E-06 0.00000E+00 -9.65926E-06 
1.30526E-06 0.00000E+00 -9.91445E-06 1.26425E-06 3.24605E-07 9.91445E-06 2.50688E-06 6.43657E-07 9.65926E-06 
3.70661E-06 9.51695E-07 9.23880E-06 4.84292E-06 1.24345E-06 8.66025E-06 5.89636E-06 1.51393E-06 7.93353E-06 
6.84892E-06 1.75850E-06 7.07107E-06 7.68429E-06 1.97299E-06 6.08761E-06 8.38818E-06 2.15372E-06 5.00000E-06 
8.94854E-06 2.29760E-06 3.82683E-06 9.35579E-06 2.40216E-06 2.58819E-06 9.60297E-06 2.46562E-06 1.30526E-06 
9.68583E-06 2.48690E-06 6.12323E-22 9.60297E-06 2.46562E-06 -1.30526E-06 9.35579E-06 2.40216E-06 -2.58819E-06 
8.94854E-06 2.29760E-06 -3.82683E-06 8.38818E-06 2.15372E-06 -5.00000E-06 7.68429E-06 1.97299E-06 -6.08761E-06 
6.84892E-06 1.75850E-06 -7.07107E-06 5.89636E-06 1.51393E-06 -7.93353E-06 4.84292E-06 1.24345E-06 -8.66025E-06 
3.70661E-06 9.51695E-07 -9.23880E-06 2.50688E-06 6.43657E-07 -9.65926E-06 1.26425E-06 3.24605E-07 -9.91445E-06 
1.14381E-06 6.28815E-07 9.91445E-06 2.26805E-06 1.24687E-06 9.65926E-06 3.35348E-06 1.84359E-06 9.23880E-06 
4.38153E-06 2.40877E-06 8.66025E-06 5.33462E-06 2.93273E-06 7.93353E-06 6.19642E-06 3.40651E-06 7.07107E-06 
6.95221E-06 3.82201E-06 6.08761E-06 7.58904E-06 4.17211E-06 5.00000E-06 8.09602E-06 4.45082E-06 3.82683E-06 
8.46447E-06 4.65338E-06 2.58819E-06 8.68810E-06 4.77632E-06 1.30526E-06 8.76307E-06 4.81754E-06 6.12323E-22 
8.68810E-06 4.77632E-06 -1.30526E-06 8.46447E-06 4.65338E-06 -2.58819E-06 8.09602E-06 4.45082E-06 -3.82683E-06 
7.58904E-06 4.17211E-06 -5.00000E-06 6.95221E-06 3.82201E-06 -6.08761E-06 6.19642E-06 3.40651E-06 -7.07107E-06 
5.33462E-06 2.93273E-06 -7.93353E-06 4.38153E-06 2.40877E-06 -8.66025E-06 3.35348E-06 1.84359E-06 -9.23880E-06 
2.26805E-06 1.24687E-06 -9.65926E-06 1.14381E-06 6.28815E-07 -9.91445E-06 9.51495E-07 8.93513E-07 9.91445E-06 
1.88671E-06 1.77174E-06 9.65926E-06 2.78964E-06 2.61965E-06 9.23880E-06 3.64484E-06 3.42274E-06 8.66025E-06 
4.43768E-06 4.16726E-06 7.93353E-06 5.15459E-06 4.84048E-06 7.07107E-06 5.78330E-06 5.43088E-06 6.08761E-06 
6.31305E-06 5.92835E-06 5.00000E-06 6.73479E-06 6.32439E-06 3.82683E-06 7.04130E-06 6.61222E-06 2.58819E-06 
7.22732E-06 6.78691E-06 1.30526E-06 7.28969E-06 6.84547E-06 6.12323E-22 7.22732E-06 6.78691E-06 -1.30526E-06 
7.04130E-06 6.61222E-06 -2.58819E-06 6.73479E-06 6.32439E-06 -3.82683E-06 6.31305E-06 5.92835E-06 -5.00000E-06 
5.78330E-06 5.43088E-06 -6.08761E-06 5.15459E-06 4.84048E-06 -7.07107E-06 4.43768E-06 4.16726E-06 -7.93353E-06 
3.64484E-06 3.42274E-06 -8.66025E-06 2.78964E-06 2.61965E-06 -9.23880E-06 1.88671E-06 1.77174E-06 -9.65926E-06 
9.51495E-07 8.93513E-07 -9.91445E-06 6.99394E-07 1.10207E-06 9.91445E-06 1.38682E-06 2.18528E-06 9.65926E-06 
2.05052E-06 3.23110E-06 9.23880E-06 2.67913E-06 4.22164E-06 8.66025E-06 3.26191E-06 5.13994E-06 7.93353E-06 
3.78887E-06 5.97030E-06 7.07107E-06 4.25100E-06 6.69850E-06 6.08761E-06 4.64040E-06 7.31209E-06 5.00000E-06 
4.95039E-06 7.80057E-06 3.82683E-06 5.17569E-06 8.15558E-06 2.58819E-06 5.31243E-06 8.37105E-06 1.30526E-06 
5.35827E-06 8.44328E-06 6.12323E-22 5.31243E-06 8.37105E-06 -1.30526E-06 5.17569E-06 8.15558E-06 -2.58819E-06 
4.95039E-06 7.80057E-06 -3.82683E-06 4.64040E-06 7.31209E-06 -5.00000E-06 4.25100E-06 6.69850E-06 -6.08761E-06 
3.78887E-06 5.97030E-06 -7.07107E-06 3.26191E-06 5.13994E-06 -7.93353E-06 2.67913E-06 4.22164E-06 -8.66025E-06 
2.05052E-06 3.23110E-06 -9.23880E-06 1.38682E-06 2.18528E-06 -9.65926E-06 6.99394E-07 1.10207E-06 -9.91445E-06 
4.03348E-07 1.24138E-06 9.91445E-06 7.99795E-07 2.46152E-06 9.65926E-06 1.18256E-06 3.63954E-06 9.23880E-06 
1.54509E-06 4.75528E-06 8.66025E-06 1.88118E-06 5.78967E-06 7.93353E-06 2.18508E-06 6.72499E-06 7.07107E-06 
2.45160E-06 7.54524E-06 6.08761E-06 2.67617E-06 8.23639E-06 5.00000E-06 2.85494E-06 8.78662E-06 3.82683E-06 
2.98487E-06 9.18650E-06 2.58819E-06 3.06373E-06 9.42920E-06 1.30526E-06 3.09017E-06 9.51057E-06 6.12323E-22 
3.06373E-06 9.42920E-06 -1.30526E-06 2.98487E-06 9.18650E-06 -2.58819E-06 2.85494E-06 8.78662E-06 -3.82683E-06 
2.67617E-06 8.23639E-06 -5.00000E-06 2.45160E-06 7.54524E-06 -6.08761E-06 2.18508E-06 6.72499E-06 -7.07107E-06 
1.88118E-06 5.78967E-06 -7.93353E-06 1.54509E-06 4.75528E-06 -8.66025E-06 1.18256E-06 3.63954E-06 -9.23880E-06 
7.99795E-07 2.46152E-06 -9.65926E-06 4.03348E-07 1.24138E-06 -9.91445E-06 8.19581E-08 1.30269E-06 9.91445E-06 
1.62514E-07 2.58308E-06 9.65926E-06 2.40289E-07 3.81928E-06 9.23880E-06 3.13953E-07 4.99013E-06 8.66025E-06 
3.82244E-07 6.07560E-06 7.93353E-06 4.43996E-07 7.05711E-06 7.07107E-06 4.98151E-07 7.91788E-06 6.08761E-06 
5.43782E-07 8.64317E-06 5.00000E-06 5.80109E-07 9.22056E-06 3.82683E-06 6.06510E-07 9.64020E-06 2.58819E-06 
6.22533E-07 9.89488E-06 1.30526E-06 6.27905E-07 9.98027E-06 6.12323E-22 6.22533E-07 9.89488E-06 -1.30526E-06 
6.06510E-07 9.64020E-06 -2.58819E-06 5.80109E-07 9.22056E-06 -3.82683E-06 5.43782E-07 8.64317E-06 -5.00000E-06 
4.98151E-07 7.91788E-06 -6.08761E-06 4.43996E-07 7.05711E-06 -7.07107E-06 3.82244E-07 6.07560E-06 -7.93353E-06 
3.13953E-07 4.99013E-06 -8.66025E-06 2.40289E-07 3.81928E-06 -9.23880E-06 1.62514E-07 2.58308E-06 -9.65926E-06 
8.19581E-08 1.30269E-06 -9.91445E-06 -2.44582E-07 1.28214E-06 9.91445E-06 -4.84979E-07 2.54235E-06 9.65926E-06 
-7.17077E-07 3.75905E-06 9.23880E-06 -9.36907E-07 4.91144E-06 8.66025E-06 -1.14071E-06 5.97979E-06 7.93353E-06 
-1.32499E-06 6.94582E-06 7.07107E-06 -1.48660E-06 7.79301E-06 6.08761E-06 -1.62277E-06 8.50686E-06 5.00000E-06 
-1.73118E-06 9.07515E-06 3.82683E-06 -1.80996E-06 9.48817E-06 2.58819E-06 -1.85778E-06 9.73884E-06 1.30526E-06 
-1.87381E-06 9.82287E-06 6.12323E-22 -1.85778E-06 9.73884E-06 -1.30526E-06 -1.80996E-06 9.48817E-06 -2.58819E-06 
-1.73118E-06 9.07515E-06 -3.82683E-06 -1.62277E-06 8.50686E-06 -5.00000E-06 -1.48660E-06 7.79301E-06 -6.08761E-06 
-1.32499E-06 6.94582E-06 -7.07107E-06 -1.14071E-06 5.97979E-06 -7.93353E-06 -9.36907E-07 4.91144E-06 -8.66025E-06 
-7.17077E-07 3.75905E-06 -9.23880E-06 -4.84979E-07 2.54235E-06 -9.65926E-06 -2.44582E-07 1.28214E-06 -9.91445E-06 
-5.55754E-07 1.18104E-06 9.91445E-06 -1.10200E-06 2.34186E-06 9.65926E-06 -1.62939E-06 3.46262E-06 9.23880E-06 
-2.12890E-06 4.52414E-06 8.66025E-06 -2.59198E-06 5.50824E-06 7.93353E-06 -3.01071E-06 6.39809E-06 7.07107E-06 
-3.37793E-06 7.17848E-06 6.08761E-06 -3.68736E-06 7.83603E-06 5.00000E-06 -3.93369E-06 8.35951E-06 3.82683E-06 
-4.11271E-06 8.73996E-06 2.58819E-06 -4.22137E-06 8.97086E-06 1.30526E-06 -4.25779E-06 9.04827E-06 6.12323E-22 
-4.22137E-06 8.97086E-06 -1.30526E-06 -4.11271E-06 8.73996E-06 -2.58819E-06 -3.93369E-06 8.35951E-06 -3.82683E-06 
-3.68736E-06 7.83603E-06 -5.00000E-06 -3.37793E-06 7.17848E-06 -6.08761E-06 -3.01071E-06 6.39809E-06 -7.07107E-06 
-2.59198E-06 5.50824E-06 -7.93353E-06 -2.12890E-06 4.52414E-06 -8.66025E-06 -1.62939E-06 3.46262E-06 -9.23880E-06 
-1.10200E-06 2.34186E-06 -9.65926E-06 -5.55754E-07 1.18104E-06 -9.91445E-06 -8.32005E-07 1.00572E-06 9.91445E-06 
-1.64977E-06 1.99424E-06 9.65926E-06 -2.43932E-06 2.94863E-06 9.23880E-06 -3.18712E-06 3.85257E-06 8.66025E-06 
-3.88039E-06 4.69059E-06 7.93353E-06 -4.50727E-06 5.44835E-06 7.07107E-06 -5.05702E-06 6.11289E-06 6.08761E-06 
-5.52025E-06 6.67284E-06 5.00000E-06 -5.88903E-06 7.11861E-06 3.82683E-06 -6.15704E-06 7.44259E-06 2.58819E-06 
-6.31971E-06 7.63921E-06 1.30526E-06 -6.37424E-06 7.70513E-06 6.12323E-22 -6.31971E-06 7.63921E-06 -1.30526E-06 
-6.15704E-06 7.44259E-06 -2.58819E-06 -5.88903E-06 7.11861E-06 -3.82683E-06 -5.52025E-06 6.67284E-06 -5.00000E-06 
-5.05702E-06 6.11289E-06 -6.08761E-06 -4.50727E-06 5.44835E-06 -7.07107E-06 -3.88039E-06 4.69059E-06 -7.93353E-06 
-3.18712E-06 3.85257E-06 -8.66025E-06 -2.43932E-06 2.94863E-06 -9.23880E-06 -1.64977E-06 1.99424E-06 -9.65926E-06 
-8.32005E-07 1.00572E-06 -9.91445E-06 -1.05598E-06 7.67214E-07 9.91445E-06 -2.09389E-06 1.52130E-06 9.65926E-06 
-3.09597E-06 2.24936E-06 9.23880E-06 -4.04509E-06 2.93893E-06 8.66025E-06 -4.92498E-06 3.57821E-06 7.93353E-06 
-5.72061E-06 4.15627E-06 7.07107E-06 -6.41836E-06 4.66321E-06 6.08761E-06 -7.00629E-06 5.09037E-06 5.00000E-06 
-7.47434E-06 5.43043E-06 3.82683E-06 -7.81450E-06 5.67757E-06 2.58819E-06 -8.02096E-06 5.82757E-06 1.30526E-06 
-8.09017E-06 5.87785E-06 6.12323E-22 -8.02096E-06 5.82757E-06 -1.30526E-06 -7.81450E-06 5.67757E-06 -2.58819E-06 
-7.47434E-06 5.43043E-06 -3.82683E-06 -7.00629E-06 5.09037E-06 -5.00000E-06 -6.41836E-06 4.66321E-06 -6.08761E-06 
-5.72061E-06 4.15627E-06 -7.07107E-06 -4.92498E-06 3.57821E-06 -7.93353E-06 -4.04509E-06 2.93893E-06 -8.66025E-06 
-3.09597E-06 2.24936E-06 -9.23880E-06 -2.09389E-06 1.52130E-06 -9.65926E-06 -1.05598E-06 7.67214E-07 -9.91445E-06 
-1.21360E-06 4.80499E-07 9.91445E-06 -2.40644E-06 9.52776E-07 9.65926E-06 -3.55810E-06 1.40875E-06 9.23880E-06 
-4.64888E-06 1.84062E-06 8.66025E-06 -5.66012E-06 2.24100E-06 7.93353E-06 -6.57451E-06 2.60303E-06 7.07107E-06 
-7.37641E-06 2.92053E-06 6.08761E-06 -8.05210E-06 3.18805E-06 5.00000E-06 -8.59001E-06 3.40103E-06 3.82683E-06 
[...]
CELL_DATA 5
FIELD FieldData 2
Cell_id 1 1 int
1 2 3 4 5 6 7
METADATA
INFORMATION 0

Cell_type_id 1 1 int
0 0 0 0 0 0 0
METADATA
INFORMATION 0


