# vtk DataFile Version 4.2
vtk output
ASCII
DATASET UNSTRUCTURED_GRID
POINTS 1424 float
4.6556e-06 4.26e-06 1.284e-05 4.5773e-06 3.3499e-06 1.2951e-05 5.6311e-06 3.6685e-06 1.2725e-05 
4.0981e-06 5.2282e-06 1.2761e-05 3.5131e-06 2.5936e-06 1.3128e-05 4.8327e-06 6.4593e-06 1.233e-05 
2.8583e-06 5.1398e-06 1.2883e-05 7.9351e-06 2.5262e-06 1.2043e-05 8.4659e-06 3.9834e-06 1.1699e-05 
8.7104e-06 5.5615e-06 1.1276e-05 3.214e-06 6.4104e-06 1.2561e-05 1.5878e-06 3.3757e-06 1.3136e-05 
3.7586e-06 1.2367e-06 1.3085e-05 7.1384e-06 7.6973e-06 1.1237e-05 5.7502e-06 7.5944e-06 1.1724e-05 
4.3009e-06 7.6953e-06 1.1989e-05 8.512e-06 1.2808e-06 1.177e-05 9.4819e-06 2.6262e-06 1.13e-05 
1.0084e-05 4.4044e-06 1.0765e-05 9.9934e-06 6.4283e-06 1.0284e-05 2.8732e-06 7.9854e-06 1.2015e-05 
1.3558e-06 1.3782e-06 1.3154e-05 6.3264e-06 -1.851e-07 1.2417e-05 9.0077e-06 8.5038e-06 9.9471e-06 
6.6598e-06 8.6353e-06 1.0979e-05 5.4883e-06 8.7346e-06 1.1283e-05 5.836e-07 5.3021e-06 1.2783e-05 
-1.696e-07 2.8872e-06 1.2992e-05 2.6063e-06 -7.965e-08 1.3007e-05 7.5703e-06 -1.1171e-06 1.1796e-05 
1.0096e-05 1.0338e-06 1.0887e-05 1.0898e-05 2.1023e-06 1.0396e-05 1.168e-05 4.1497e-06 9.6409e-06 
2.7467e-06 9.5496e-06 1.1252e-05 1.6945e-06 8.8972e-06 1.1606e-05 3.0428e-06 3.7639e-06 1.3098e-05 
5.05e-08 1.8992e-06 1.3043e-05 4.0876e-06 8.9102e-06 1.1468e-05 2.346e-07 6.311e-07 1.2986e-05 
1.3101e-06 -1.48e-07 1.2994e-05 2.6093e-06 -1.1294e-06 1.282e-05 6.5283e-06 -1.858e-06 1.1973e-05 
9.2246e-06 -5.827e-07 1.1161e-05 1.0728e-05 -1.0115e-07 1.0297e-05 1.2168e-05 5.4646e-06 8.8903e-06 
9.9979e-06 8.3488e-06 9.4318e-06 7.4926e-06 9.7535e-06 1.001e-05 7.8074e-06 -2.6514e-06 1.1226e-05 
1.0596e-05 -1.2328e-06 1.0119e-05 1.1653e-05 9.295e-07 9.7653e-06 1.2195e-05 2.4899e-06 9.3689e-06 
1.1859e-05 6.8497e-06 8.6675e-06 8.9724e-06 9.4386e-06 9.4318e-06 4.465e-07 9.6212e-06 1.1107e-05 
-6.358e-07 8.8539e-06 1.1326e-05 -1.0527e-06 7.7485e-06 1.1755e-05 -1.8387e-06 6.9585e-06 1.1836e-05 
-1.4604e-06 2.5933e-06 1.2753e-05 1.2277e-06 -1.7582e-06 1.2646e-05 2.6635e-06 -2.5901e-06 1.2413e-05 
4.2444e-06 -2.8763e-06 1.2162e-05 5.6755e-06 -3.2394e-06 1.1733e-05 6.8867e-06 -3.3736e-06 1.1298e-05 
8.9903e-06 -3.3607e-06 1.0349e-05 1.1626e-05 -6.8445e-07 9.4845e-06 8.5141e-06 1.0432e-05 9.0051e-06 
7.0719e-06 1.1021e-05 9.2981e-06 1.9955e-06 1.187e-05 9.6528e-06 -1.7383e-06 5.4215e-06 1.232e-05 
-2.3871e-06 1.4503e-06 1.2472e-05 -9.5799e-08 -2.0837e-06 1.2389e-05 7.923e-06 -4.1035e-06 1.0536e-05 
8.92e-06 -4.4445e-06 9.828e-06 1.1383e-05 -2.0233e-06 9.2623e-06 1.0019e-05 1.0133e-05 8.2496e-06 
-2.683e-07 1.0873e-05 1.0183e-05 -2.6547e-06 8.3014e-06 1.1016e-05 -3.0489e-06 5.3105e-06 1.1901e-05 
-3.2064e-06 3.0508e-06 1.2175e-05 -1.717e-06 -2.2335e-07 1.2489e-05 1.4455e-06 -3.4975e-06 1.2058e-05 
2.5758e-06 -4.219e-06 1.1745e-05 4.8192e-06 -4.5617e-06 1.1338e-05 1.0067e-05 -4.1369e-06 9.2764e-06 
1.1026e-05 -3.3133e-06 8.9787e-06 -3.0436e-06 6.8207e-06 1.1484e-05 -4.1785e-06 4.6205e-06 1.1577e-05 
-4.6693e-06 3.3991e-06 1.1483e-05 -2.4849e-06 -1.4886e-06 1.1965e-05 5.6971e-06 -5.7409e-06 1.0426e-05 
1.3083e-05 2.2151e-06 8.493e-06 -9.0329e-06 -4.784e-07 -1.1451e-05 -1.1689e-06 1.1814e-05 9.2023e-06 
-3.2202e-06 9.632e-06 1.0054e-05 -3.934e-06 8.4619e-06 1.0388e-05 -4.2938e-06 7.5393e-06 1.0621e-05 
-4.1894e-06 6.2242e-06 1.1167e-05 -3.9623e-06 2.0264e-06 1.1882e-05 -3.2757e-06 5.34e-07 1.2074e-05 
-2.4639e-06 -2.4768e-06 1.1675e-05 -1.0529e-06 -3.0111e-06 1.1894e-05 1.129e-07 -4.3823e-06 1.1528e-05 
1.606e-06 -5.0775e-06 1.1307e-05 3.2453e-06 -5.3587e-06 1.1119e-05 4.4317e-06 -6.2516e-06 1.0392e-05 
6.9179e-06 -5.9089e-06 9.9012e-06 1.2477e-05 -1.4345e-07 8.846e-06 7.0882e-06 3.4614e-06 1.2306e-05 
1.2801e-05 1.1048e-06 8.7344e-06 1.245e-05 7.9849e-06 7.4909e-06 -4.7947e-06 9.198e-06 9.4627e-06 
-5.4115e-06 5.6684e-06 1.0665e-05 -5.8752e-06 4.0275e-06 1.0734e-05 -4.6799e-06 9.131e-07 1.147e-05 
-1.4146e-06 -4.0365e-06 1.1355e-05 3.33e-06 -6.6318e-06 1.0267e-05 8.2486e-06 -6.3779e-06 8.9148e-06 
1.3773e-05 1.2708e-06 7.6734e-06 1.3715e-05 6.5213e-06 6.7681e-06 8.513e-06 1.1664e-05 7.9721e-06 
4.2418e-06 1.2615e-05 8.7922e-06 1.1038e-05 7.1195e-06 9.2442e-06 -3.5087e-06 1.1021e-05 8.9172e-06 
-4.4806e-06 1.0008e-05 9.1411e-06 -5.9465e-06 8.056e-07 1.0734e-05 -3.7675e-06 -2.1251e-06 1.1279e-05 
-1.0853e-06 -5.2605e-06 1.0803e-05 7.363e-06 -7.1251e-06 8.7635e-06 -6.428e-07 6.2122e-06 1.2369e-05 
9.5331e-06 -6.4429e-06 8.0119e-06 1.4318e-05 5.018e-06 6.5406e-06 1.3376e-05 8.0814e-06 6.2502e-06 
6.9548e-06 1.2217e-05 8.2908e-06 3.3795e-06 1.3455e-05 8.0256e-06 -1.3008e-06 1.2749e-05 8.2826e-06 
-5.9808e-06 8.076e-06 9.3195e-06 -6.3127e-06 6.7198e-06 9.7052e-06 -4.7126e-06 -5.797e-07 1.1247e-05 
-5.0393e-06 -2.2036e-06 1.0587e-05 -3.6348e-06 -3.4437e-06 1.0832e-05 1.0524e-05 -6.0217e-06 7.5721e-06 
1.4848e-05 3.4737e-06 6.1385e-06 1.5122e-05 4.932e-06 5.2578e-06 1.4781e-05 6.0898e-06 5.3448e-06 
7.0095e-06 4.9138e-06 1.2142e-05 1.4282e-05 7.4439e-06 5.3374e-06 1.2646e-05 9.3804e-06 6.1921e-06 
4.7523e-06 1.3451e-05 7.773e-06 6.1016e-06 9.9998e-06 1.0391e-05 -5.7085e-06 9.7555e-06 8.5064e-06 
-7.2599e-06 6.5894e-06 8.9931e-06 -7.8597e-06 2.8457e-06 9.3222e-06 -2.055e-06 -6.0786e-06 9.9798e-06 
1.452e-05 3.36e-07 6.5354e-06 1.5255e-05 1.4343e-06 5.4985e-06 1.1888e-05 1.0481e-05 6.0825e-06 
1.069e-05 1.1038e-05 6.839e-06 8.0559e-06 1.2851e-05 6.9772e-06 3.5763e-06 1.4355e-05 6.8702e-06 
2.1295e-06 1.3983e-05 7.4778e-06 1.1316e-05 -4.8093e-06 7.8443e-06 -1.0029e-06 1.362e-05 7.3881e-06 
-6.7972e-06 8.0461e-06 8.7031e-06 -7.8003e-06 1.7889e-06 9.3871e-06 -7.0657e-06 7.772e-07 9.9304e-06 
-5.6942e-06 -3.5111e-06 9.6321e-06 -4.6431e-06 -5.5047e-06 9.1204e-06 1.5353e-05 5.236e-07 5.1647e-06 
1.5922e-05 1.536e-06 4.1773e-06 1.5529e-05 2.6445e-06 5.0275e-06 1.6227e-05 2.7537e-06 3.4498e-06 
1.5685e-05 3.9393e-06 4.4989e-06 1.5606e-05 5.6186e-06 3.962e-06 1.5068e-05 7.0829e-06 4.1204e-06 
1.4538e-05 8.1807e-06 4.2225e-06 1.2931e-05 1.0125e-05 5.0112e-06 7.5362e-06 1.3818e-05 6.0113e-06 
5.0863e-06 1.4325e-05 6.5324e-06 -1.6736e-06 1.4187e-05 6.3409e-06 -4.8504e-06 1.1147e-05 7.9813e-06 
-1.6489e-06 -7.4217e-06 9.0657e-06 5.6868e-06 -6.8976e-06 9.6078e-06 1.452e-05 -2.782e-06 5.1225e-06 
1.4339e-05 9.0727e-06 3.6543e-06 9.5065e-06 1.2348e-05 6.4667e-06 6.5636e-06 1.4419e-05 5.7079e-06 
4.0366e-06 1.5142e-05 5.5479e-06 4.1581e-06 -7.6776e-06 9.3252e-06 -2.9521e-06 1.3161e-05 7.0941e-06 
-3.9753e-06 1.1928e-05 7.8217e-06 -7.0108e-06 -2.6108e-06 9.0465e-06 -5.7338e-06 -4.8848e-06 8.8024e-06 
-4.2549e-06 -6.4898e-06 8.6017e-06 -3.0839e-06 -7.04e-06 8.7973e-06 9.0516e-06 -7.4456e-06 7.443e-06 
1.5083e-05 -1.0566e-06 5.1609e-06 1.5917e-05 2.836e-07 3.9245e-06 1.6318e-05 4.1974e-06 2.8316e-06 
1.5766e-05 6.571e-06 2.8189e-06 1.5195e-05 8.0273e-06 2.8738e-06 1.3566e-05 1.0277e-05 3.702e-06 
5.4653e-06 1.5142e-05 5.0315e-06 3.881e-07 1.5242e-05 5.3739e-06 -1.0119e-06 1.5064e-05 5.2197e-06 
-5.1597e-06 1.1817e-05 7.0667e-06 -6.11e-08 -7.9502e-06 9.0248e-06 5.51e-06 -8.1547e-06 8.556e-06 
1.5241e-05 -2.4225e-06 3.963e-06 1.6364e-05 6.0001e-10 2.5735e-06 1.6403e-05 5.3606e-06 1.7811e-06 
1.5983e-05 6.8929e-06 1.7474e-06 1.2803e-05 1.1556e-05 3.1688e-06 -4.9877e-06 8.3788e-06 9.8308e-06 
8.8849e-06 1.3567e-05 5.3464e-06 7.0264e-06 1.5079e-05 4.1713e-06 2.6009e-06 -7.6465e-06 9.5178e-06 
4.2882e-06 1.5804e-05 4.1534e-06 -1.6712e-06 1.5349e-05 4.3007e-06 -3.5653e-06 1.4188e-05 5.112e-06 
-4.4318e-06 1.2611e-05 6.7351e-06 -7.9041e-06 7.1498e-06 8.1587e-06 -8.5884e-06 2.2228e-06 8.6493e-06 
5.2401e-08 -8.7775e-06 8.2012e-06 1.4601e-06 -8.3872e-06 8.8157e-06 3.4134e-06 -8.7476e-06 8.4172e-06 
3.7468e-06 -9.6758e-06 7.2213e-06 6.3875e-06 -8.9642e-06 7.3048e-06 1.5783e-05 -1.0143e-06 3.6493e-06 
3.5558e-06 -3.9794e-06 1.1792e-05 1.6459e-05 1.4576e-06 2.7699e-06 3.8378e-06 -1.4567e-06 1.2653e-05 
-6.1647e-06 -7.3799e-06 6.1633e-06 1.6698e-05 2.7999e-06 1.9617e-06 1.1541e-05 -7.2796e-06 5.1249e-06 
1.5491e-05 8.3157e-06 1.4553e-06 1.4626e-05 9.4517e-06 2.4092e-06 1.3743e-05 1.0704e-05 2.5356e-06 
1.0444e-05 1.2424e-05 5.4415e-06 5.7349e-06 1.5756e-05 3.5467e-06 3.4359e-06 1.631e-05 3.1233e-06 
-8.2505e-06 8.0197e-06 7.2694e-06 -9.2858e-06 2.8406e-06 7.8518e-06 -5.7561e-06 -6.0647e-06 7.9105e-06 
-1.3175e-06 -8.4527e-06 8.1788e-06 4.9899e-06 -9.2891e-06 7.4396e-06 9.2812e-06 -8.4765e-06 6.0018e-06 
1.5702e-05 -2.1131e-06 3.0487e-06 1.6807e-05 3.996e-06 1.0724e-06 1.4291e-05 1.0468e-05 1.3266e-06 
9.651e-06 1.3685e-05 4.2945e-06 7.0308e-06 1.5557e-05 3.0048e-06 4.439e-06 1.632e-05 2.7371e-06 
2.3579e-06 1.6396e-05 3.054e-06 -7.4238e-06 -8.8725e-07 9.3183e-06 1.4014e-06 1.6378e-05 3.0417e-06 
-3.1515e-06 1.5034e-05 3.8947e-06 2.5562e-06 1.4964e-05 6.0671e-06 -4.8938e-06 1.402e-05 4.1608e-06 
-4.3302e-06 1.3646e-05 5.4274e-06 -5.6122e-06 1.2295e-05 6.1156e-06 -9.8259e-06 5.7103e-06 6.4846e-06 
7.7342e-06 2.654e-07 1.1991e-05 -9.9045e-06 4.298e-06 6.8685e-06 1.113e-05 8.5206e-06 8.4432e-06 
-9.4324e-06 1.2742e-06 7.6728e-06 1.3432e-06 -9.1983e-06 7.936e-06 5.7072e-06 -9.9368e-06 6.2865e-06 
1.0323e-05 -7.7162e-06 6.0058e-06 1.4629e-05 -4.4061e-06 3.3449e-06 1.5339e-05 -3.1746e-06 3.0128e-06 
1.6555e-05 -7.5295e-07 1.3391e-06 1.6731e-05 6.153e-07 1.5013e-06 1.7053e-05 2.5627e-06 2.252e-07 
1.3292e-06 1.4827e-05 6.2515e-06 1.704e-05 3.5199e-06 -1.862e-07 1.6226e-05 7.0663e-06 2.714e-07 
1.5702e-05 8.5293e-06 -2.747e-07 1.5034e-05 9.5371e-06 6.589e-07 1.1711e-05 1.2183e-05 4.0915e-06 
8.4572e-06 1.472e-05 3.6138e-06 6.7268e-06 1.6001e-05 1.8799e-06 4.4852e-06 1.6651e-05 1.4851e-06 
2.0585e-06 1.6854e-05 1.4543e-06 2.4492e-06 1.0886e-05 1.0407e-05 -1.3434e-06 1.5996e-05 2.9515e-06 
-8.1069e-06 8.9967e-06 6.7466e-06 -9.0411e-06 7.9836e-06 6.3048e-06 -1e-05 2.6646e-06 6.9461e-06 
5.274e-07 8.1991e-06 1.1839e-05 -8.3597e-06 -2.0025e-06 8.0349e-06 -7.8219e-06 -3.4248e-06 7.8768e-06 
[...]
CELL_DATA 2
FIELD FieldData 10
FENE_stiffness 1 2 float
0.000109 0.0001243 
METADATA
INFORMATION 0

cell_area 1 2 float
2.828e-09 3.315e-08 
METADATA
INFORMATION 0

cell_division_vol 1 2 float
0.15 1e+09 
METADATA
INFORMATION 0

cell_growth_rate 1 2 float
0 0 
METADATA
INFORMATION 0

cell_id 1 2 int
0 1 
METADATA
INFORMATION 0

cell_is_static 1 2 int
0 1 
METADATA
INFORMATION 0

cell_pressure 1 2 float
-0 -0 
METADATA
INFORMATION 0

cell_type_id 1 2 int
1 2 
METADATA
INFORMATION 0

cell_volume 1 2 float
1.413e-14 3.289e-13 
METADATA
INFORMATION 0

vtkOriginalCellIds 1 2 vtkIdType
0 1 
POINT_DATA 1424
FIELD FieldData 1
vtkOriginalPointIds 1 1424 vtkIdType
0 1 2 3 4 5 6 7 8 
9 10 11 12 13 14 15 16 17 
18 19 20 21 22 23 24 25 26 
27 28 29 30 31 32 33 34 35 
36 37 38 39 40 41 42 43 44 
45 46 47 48 49 50 51 52 53 
54 55 56 57 58 59 60 61 62 
63 64 65 66 67 68 69 70 71 
72 73 74 75 76 77 78 79 80 
81 82 83 84 85 86 87 88 89 
90 91 92 93 94 95 96 97 98 
99 100 101 102 103 104 105 106 107 
108 109 110 111 112 113 114 115 116 
117 118 119 120 121 122 123 124 125 
126 127 128 129 130 131 132 133 134 
135 136 137 138 139 140 141 142 143 
144 145 146 147 148 149 150 151 152 
153 154 155 156 157 158 159 160 161 
162 163 164 165 166 167 168 169 170 
171 172 173 174 175 176 177 178 179 
180 181 182 183 184 185 186 187 188 
189 190 191 192 193 194 195 196 197 
198 199 200 201 202 203 204 205 206 
207 208 209 210 211 212 213 214 215 
216 217 218 219 220 221 222 223 224 
225 226 227 228 229 230 231 232 233 
234 235 236 237 238 239 240 241 242 
243 244 245 246 247 248 249 250 251 
252 253 254 255 256 257 258 259 260 
261 262 263 264 265 266 267 268 269 
270 271 272 273 274 275 276 277 278 
279 280 281 282 283 284 285 286 287 
288 289 290 291 292 293 294 295 296 
297 298 299 300 301 302 303 304 305 
306 307 308 309 310 311 312 313 314 
315 316 317 318 319 320 321 322 323 
324 325 326 327 328 329 330 331 332 
333 334 335 336 337 338 339 340 341 
342 343 344 345 346 347 348 349 350 
351 352 353 354 355 356 357 358 359 
360 361 362 363 364 365 366 367 368 
369 370 371 372 373 374 375 376 377 
378 379 380 381 382 383 384 385 386 
387 388 389 390 391 392 393 394 395 
396 397 398 399 400 401 402 403 404 
405 406 407 408 409 410 411 412 413 
414 415 416 417 418 419 420 421 422 
423 424 425 426 427 428 429 430 431 
432 433 434 435 436 437 438 439 440 
441 442 443 444 445 446 447 448 449 
450 451 452 453 454 455 456 457 458 
459 460 461 462 463 464 465 466 467 
468 469 470 471 472 473 474 475 476 
477 478 479 480 481 482 483 484 485 
486 487 488 489 490 491 492 493 494 
495 496 497 498 499 500 501 502 503 
504 505 506 507 508 509 510 511 512 
513 514 515 516 517 518 519 520 521 
522 523 524 525 526 527 528 529 530 
531 532 533 534 535 536 537 538 539 
540 541 542 543 544 545 546 547 548 
549 550 551 552 553 554 555 556 557 
558 559 560 561 562 563 564 565 566 
567 568 569 570 571 572 573 574 575 
576 577 578 579 580 581 582 583 584 
585 586 587 588 589 590 591 592 593 
594 595 596 597 598 599 600 601 602 
603 604 605 606 607 608 609 610 611 
612 613 614 615 616 617 618 619 620 
621 622 623 624 625 626 627 628 629 
630 631 632 633 634 635 636 637 638 
639 640 641 642 643 644 645 646 647 
648 649 650 651 652 653 654 655 656 
657 658 659 660 661 662 663 664 665 
666 667 668 669 670 671 672 673 674 
675 676 677 678 679 680 681 682 683 
684 685 686 687 688 689 690 691 692 
693 694 695 696 697 698 699 700 701 
702 703 704 705 706 707 708 709 710 
711 712 713 714 715 716 717 718 719 
720 721 722 723 724 725 726 727 728 
729 730 731 732 733 734 735 736 737 
738 739 740 741 742 743 744 745 746 
747 748 749 750 751 752 753 754 755 
756 757 758 759 760 761 762 763 764 
765 766 767 768 769 770 771 772 773 
774 775 776 777 778 779 780 781 782 
783 784 785 786 787 788 789 790 791 
792 793 794 795 796 797 798 799 800 
801 802 803 804 805 806 807 808 809 
810 811 812 813 814 815 816 817 818 
819 820 821 822 823 824 825 826 827 
828 829 830 831 832 833 834 835 836 
837 838 839 840 841 842 843 844 845 
846 847 848 849 850 851 852 853 854 
855 856 857 858 859 860 861 862 863 
864 865 866 867 868 869 870 871 872 
873 874 875 876 877 878 879 880 881 
882 883 884 885 886 887 888 889 890 
891 892 893 894 895 896 897 898 899 
900 901 902 903 904 905 906 907 908 
909 910 911 912 913 914 915 916 917 
918 919 920 921 922 923 924 925 926 
927 928 929 930 931 932 933 934 935 
936 937 938 939 940 941 942 943 944 
945 946 947 948 949 950 951 952 953 
954 955 956 957 958 959 960 961 962 
963 964 965 966 967 968 969 970 971 
972 973 974 975 976 977 978 979 980 
981 982 983 984 985 986 987 988 989 
990 991 992 993 994 995 996 997 998 
999 1000 1001 1002 1003 1004 1005 1006 1007 
1008 1009 1010 1011 1012 1013 1014 1015 1016 
1017 1018 1019 1020 1021 1022 1023 1024 1025 
1026 1027 1028 1029 1030 1031 1032 1033 1034 
1035 1036 1037 1038 1039 1040 1041 1042 1043 
1044 1045 1046 1047 1048 1049 1050 1051 1052 
1053 1054 1055 1056 1057 1058 1059 1060 1061 
1062 1063 1064 1065 1066 1067 1068 1069 1070 
1071 1072 1073 1074 1075 1076 1077 1078 1079 
1080 1081 1082 1083 1084 1085 1086 1087 1088 
1089 1090 1091 1092 1093 1094 1095 1096 1097 
1098 1099 1100 1101 1102 1103 1104 1105 1106 
1107 1108 1109 1110 1111 1112 1113 1114 1115 
1116 1117 1118 1119 1120 1121 1122 1123 1124 
1125 1126 1127 1128 1129 1130 1131 1132 1133 
1134 1135 1136 1137 1138 1139 1140 1141 1142 
1143 1144 1145 1146 1147 1148 1149 1150 1151 
1152 1153 1154 1155 1156 1157 1158 1159 1160 
1161 1162 1163 1164 1165 1166 1167 1168 1169 
1170 1171 1172 1173 1174 1175 1176 1177 1178 
1179 1180 1181 1182 1183 1184 1185 1186 1187 
1188 1189 1190 1191 1192 1193 1194 1195 1196 
1197 1198 1199 1200 1201 1202 1203 1204 1205 
1206 1207 1208 1209 1210 1211 1212 1213 1214 
1215 1216 1217 1218 1219 1220 1221 1222 1223 
1224 1225 1226 1227 1228 1229 1230 1231 1232 
1233 1234 1235 1236 1237 1238 1239 1240 1241 
1242 1243 1244 1245 1246 1247 1248 1249 1250 
1251 1252 1253 1254 1255 1256 1257 1258 1259 
1260 1261 1262 1263 1264 1265 1266 1267 1268 
1269 1270 1271 1272 1273 1274 1275 1276 1277 
1278 1279 1280 1281 1282 1283 1284 1285 1286 
1287 1288 1289 1290 1291 1292 1293 1294 1295 
1296 1297 1298 1299 1300 1301 1302 1303 1304 
1305 1306 1307 1308 1309 1310 1311 1312 1313 
1314 1315 1316 1317 1318 1319 1320 1321 1322 
1323 1324 1325 1326 1327 1328 1329 1330 1331 
1332 1333 1334 1335 1336 1337 1338 1339 1340 
1341 1342 1343 1344 1345 1346 1347 1348 1349 
1350 1351 1352 1353 1354 1355 1356 1357 1358 
1359 1360 1361 1362 1363 1364 1365 1366 1367 
1368 1369 1370 1371 1372 1373 1374 1375 1376 
1377 1378 1379 1380 1381 1382 1383 1384 1385 
1386 1387 1388 1389 1390 1391 1392 1393 1394 
1395 1396 1397 1398 1399 1400 1401 1402 1403 
1404 1405 1406 1407 1408 1409 1410 1411 1412 
1413 1414 1415 1416 1417 1418 1419 1420 1421 
1422 1423 
