# vtk DataFile Version 4.2
vtk output
ASCII
DATASET UNSTRUCTURED_GRID
POINTS 2832 float
3.27665e-05 1.44487e-05 5.29667e-05 3.25965e-05 1.35179e-05 5.30799e-05 3.4884e-05 1.38437e-05 5.28502e-05 
3.15563e-05 1.54389e-05 5.28865e-05 3.02864e-05 1.27444e-05 5.3259e-05 3.31509e-05 1.6698e-05 5.245e-05 
2.88651e-05 1.53485e-05 5.30108e-05 3.98852e-05 1.26754e-05 5.21592e-05 4.10374e-05 1.41658e-05 5.18104e-05 
4.15682e-05 1.57798e-05 5.13814e-05 2.96372e-05 1.6648e-05 5.26841e-05 2.61072e-05 1.35443e-05 5.32672e-05 
3.08193e-05 1.13566e-05 5.32159e-05 3.81558e-05 1.79642e-05 5.13415e-05 3.51425e-05 1.7859e-05 5.18357e-05 
3.19965e-05 1.79622e-05 5.21037e-05 4.11375e-05 1.14017e-05 5.18817e-05 4.32428e-05 1.27777e-05 5.14059e-05 
4.45503e-05 1.45964e-05 5.08627e-05 4.43532e-05 1.66663e-05 5.03746e-05 2.88974e-05 1.82589e-05 5.21304e-05 
2.56036e-05 1.15013e-05 5.32858e-05 3.63932e-05 9.90243e-06 5.25378e-05 4.22135e-05 1.87891e-05 5.00335e-05 
3.7117e-05 1.89235e-05 5.108e-05 3.4574e-05 1.90251e-05 5.13876e-05 2.39274e-05 1.55145e-05 5.29093e-05 
2.22924e-05 1.30446e-05 5.31216e-05 2.83181e-05 1.00103e-05 5.31365e-05 3.90934e-05 8.94922e-06 5.19089e-05 
4.45748e-05 1.11491e-05 5.09866e-05 4.63157e-05 1.22419e-05 5.04886e-05 4.80149e-05 1.43359e-05 4.9723e-05 
2.86228e-05 1.98586e-05 5.13572e-05 2.63388e-05 1.91914e-05 5.17155e-05 2.92656e-05 1.39413e-05 5.3229e-05 
2.27702e-05 1.20342e-05 5.31734e-05 3.15335e-05 1.92047e-05 5.15762e-05 2.31698e-05 1.07372e-05 5.31152e-05 
2.55044e-05 9.94037e-06 5.31233e-05 2.83246e-05 8.93669e-06 5.29467e-05 3.68315e-05 8.19141e-06 5.20882e-05 
4.26843e-05 9.49578e-06 5.12644e-05 4.59471e-05 9.98829e-06 5.03881e-05 4.90729e-05 1.56807e-05 4.89618e-05 
4.43629e-05 1.86305e-05 4.95109e-05 3.89247e-05 2.00672e-05 5.0097e-05 3.9608e-05 7.37995e-06 5.13304e-05 
4.56617e-05 8.83089e-06 5.0208e-05 4.79545e-05 1.10424e-05 4.98491e-05 4.91319e-05 1.26383e-05 4.94471e-05 
4.84021e-05 1.70973e-05 4.87359e-05 4.21369e-05 1.97451e-05 4.95109e-05 2.36298e-05 1.99319e-05 5.12098e-05 
2.12805e-05 1.91471e-05 5.14312e-05 2.03755e-05 1.80166e-05 5.18671e-05 1.86693e-05 1.72086e-05 5.19487e-05 
1.94905e-05 1.27441e-05 5.2879e-05 2.53256e-05 8.29358e-06 5.27699e-05 2.84422e-05 7.4427e-06 5.25337e-05 
3.18739e-05 7.14999e-06 5.22799e-05 3.49803e-05 6.77862e-06 5.18447e-05 3.76095e-05 6.64137e-06 5.14037e-05 
4.21757e-05 6.65461e-06 5.04412e-05 4.78968e-05 9.39171e-06 4.95644e-05 4.11421e-05 2.07611e-05 4.90782e-05 
3.80115e-05 2.13639e-05 4.93754e-05 2.69922e-05 2.22313e-05 4.9735e-05 1.88873e-05 1.56366e-05 5.24394e-05 
1.74789e-05 1.1575e-05 5.25934e-05 2.24526e-05 7.96062e-06 5.25092e-05 3.9859e-05 5.89481e-06 5.06312e-05 
4.20231e-05 5.54615e-06 4.99127e-05 4.73693e-05 8.02245e-06 4.9339e-05 4.44092e-05 2.04553e-05 4.83121e-05 
2.20782e-05 2.12123e-05 5.02731e-05 1.68981e-05 1.8582e-05 5.1117e-05 1.60424e-05 1.55231e-05 5.20146e-05 
1.57005e-05 1.3212e-05 5.22928e-05 1.89335e-05 9.86331e-06 5.26107e-05 2.57983e-05 6.51465e-06 5.21745e-05 
2.82519e-05 5.77668e-06 5.18562e-05 3.31216e-05 5.42623e-06 5.14436e-05 4.45138e-05 5.8607e-06 4.93533e-05 
4.65937e-05 6.70304e-06 4.90515e-05 1.60539e-05 1.70677e-05 5.15924e-05 1.35904e-05 1.48174e-05 5.16858e-05 
1.2525e-05 1.35682e-05 5.15912e-05 1.72666e-05 8.56921e-06 5.20794e-05 3.50272e-05 4.22023e-06 5.05195e-05 
5.10602e-05 1.23572e-05 4.85589e-05 3.05298e-06 9.60245e-06 2.83342e-05 2.01233e-05 2.21742e-05 4.92782e-05 
1.56705e-05 1.99429e-05 5.01418e-05 1.41211e-05 1.87462e-05 5.04802e-05 1.33401e-05 1.78026e-05 5.07164e-05 
1.35667e-05 1.64576e-05 5.12705e-05 1.40597e-05 1.21643e-05 5.19958e-05 1.55501e-05 1.06379e-05 5.21907e-05 
1.73122e-05 7.55858e-06 5.17856e-05 2.03751e-05 7.01212e-06 5.20081e-05 2.29057e-05 5.60977e-06 5.16367e-05 
2.61467e-05 4.89867e-06 5.14127e-05 2.97051e-05 4.6111e-06 5.12223e-05 3.22804e-05 3.69788e-06 5.04846e-05 
3.76772e-05 4.04841e-06 4.99869e-05 4.97436e-05 9.94502e-06 4.89169e-05 3.80469e-05 1.36319e-05 5.24253e-05 
5.04487e-05 1.12217e-05 4.88037e-05 4.96848e-05 1.82583e-05 4.75427e-05 1.22528e-05 1.9499e-05 4.95423e-05 
1.09139e-05 1.58891e-05 5.07616e-05 9.90736e-06 1.42109e-05 5.08316e-05 1.2502e-05 1.10256e-05 5.15781e-05 
1.95899e-05 5.96344e-06 5.14609e-05 2.9889e-05 3.30902e-06 5.03578e-05 4.05657e-05 3.56866e-06 4.89867e-05 
5.25584e-05 1.13915e-05 4.77278e-05 5.24305e-05 1.67614e-05 4.68098e-05 4.11397e-05 2.20217e-05 4.80307e-05 
3.18682e-05 2.29937e-05 4.88623e-05 4.66207e-05 1.73733e-05 4.93207e-05 1.50443e-05 2.13638e-05 4.89891e-05 
1.29346e-05 2.0327e-05 4.92161e-05 9.75259e-06 1.09157e-05 5.08317e-05 1.44825e-05 7.91823e-06 5.1384e-05 
2.03047e-05 4.71154e-06 5.0901e-05 3.86434e-05 2.80454e-06 4.88332e-05 2.12653e-05 1.64453e-05 5.24894e-05 
4.3354e-05 3.50218e-06 4.80711e-05 5.3741e-05 1.52239e-05 4.65791e-05 5.16953e-05 1.8357e-05 4.62846e-05 
3.77573e-05 2.25862e-05 4.83539e-05 2.99964e-05 2.38525e-05 4.8085e-05 1.9837e-05 2.31304e-05 4.83456e-05 
9.67814e-06 1.83515e-05 4.9397e-05 8.95769e-06 1.69645e-05 4.97882e-05 1.2431e-05 9.49885e-06 5.13513e-05 
1.17218e-05 7.83799e-06 5.06825e-05 1.47706e-05 6.56973e-06 5.09308e-05 4.55054e-05 3.93305e-06 4.76251e-05 
5.48919e-05 1.36445e-05 4.61713e-05 5.54864e-05 1.5136e-05 4.52783e-05 5.47462e-05 1.63201e-05 4.53665e-05 
3.7876e-05 1.51174e-05 5.22593e-05 5.36635e-05 1.7705e-05 4.5359e-05 5.01107e-05 1.96856e-05 4.62257e-05 
3.29764e-05 2.38486e-05 4.78288e-05 3.59053e-05 2.03191e-05 5.0484e-05 1.02692e-05 2.00692e-05 4.85725e-05 
6.90161e-06 1.68311e-05 4.90661e-05 5.59963e-06 1.30022e-05 4.93998e-05 1.81998e-05 3.87486e-06 5.00666e-05 
5.41801e-05 1.04354e-05 4.65738e-05 5.5774e-05 1.15587e-05 4.55223e-05 4.84653e-05 2.08112e-05 4.61145e-05 
4.58657e-05 2.13809e-05 4.68817e-05 4.01475e-05 2.32351e-05 4.70218e-05 3.04236e-05 2.47734e-05 4.69133e-05 
2.72831e-05 2.43933e-05 4.75295e-05 4.7223e-05 5.173e-06 4.79011e-05 2.04836e-05 2.40219e-05 4.74385e-05 
7.90599e-06 1.83209e-05 4.8772e-05 5.72857e-06 1.19213e-05 4.94656e-05 7.32316e-06 1.08866e-05 5.00165e-05 
1.03003e-05 6.50069e-06 4.9714e-05 1.25819e-05 4.46181e-06 4.91952e-05 5.59865e-05 1.06273e-05 4.51838e-05 
5.72234e-05 1.16627e-05 4.41826e-05 5.63697e-05 1.27964e-05 4.50447e-05 5.78842e-05 1.29081e-05 4.34448e-05 
5.67083e-05 1.41207e-05 4.45087e-05 5.65364e-05 1.58382e-05 4.39642e-05 5.53683e-05 1.73358e-05 4.41249e-05 
5.42192e-05 1.84586e-05 4.42284e-05 5.07296e-05 2.04467e-05 4.50282e-05 3.90193e-05 2.42244e-05 4.60423e-05 
3.37014e-05 2.4743e-05 4.65708e-05 1.90277e-05 2.46016e-05 4.63766e-05 1.21319e-05 2.14926e-05 4.804e-05 
1.90813e-05 2.50113e-06 4.91397e-05 3.50049e-05 3.03713e-06 4.96894e-05 5.41779e-05 7.24638e-06 4.51411e-05 
5.3785e-05 1.93709e-05 4.36522e-05 4.32962e-05 2.27209e-05 4.65041e-05 3.69081e-05 2.48385e-05 4.57347e-05 
3.14228e-05 2.55781e-05 4.55724e-05 3.16865e-05 2.2394e-06 4.94028e-05 1.62525e-05 2.35521e-05 4.71404e-05 
1.40315e-05 2.22907e-05 4.78782e-05 7.44233e-06 7.42153e-06 4.91202e-05 1.02143e-05 5.09578e-06 4.88727e-05 
1.34245e-05 3.45423e-06 4.86692e-05 1.59664e-05 2.89159e-06 4.88675e-05 4.23088e-05 2.47675e-06 4.74942e-05 
5.54e-05 9.0111e-06 4.518e-05 5.72121e-05 1.03818e-05 4.39262e-05 5.80828e-05 1.43847e-05 4.2818e-05 
5.68837e-05 1.68123e-05 4.28051e-05 5.56446e-05 1.83017e-05 4.28607e-05 5.2109e-05 2.06031e-05 4.37006e-05 
3.45241e-05 2.55781e-05 4.50488e-05 2.3503e-05 2.56809e-05 4.5396e-05 2.04641e-05 2.5499e-05 4.52396e-05 
1.14605e-05 2.21774e-05 4.71126e-05 2.2528e-05 1.96066e-06 4.90982e-05 3.46211e-05 1.75149e-06 4.86228e-05 
5.57432e-05 7.61411e-06 4.39653e-05 5.81807e-05 1.00924e-05 4.25562e-05 5.82666e-05 1.55743e-05 4.17527e-05 
5.73552e-05 1.71415e-05 4.17185e-05 5.04524e-05 2.19103e-05 4.31599e-05 1.18338e-05 1.86612e-05 4.99155e-05 
4.19469e-05 2.39679e-05 4.53681e-05 3.79127e-05 2.55142e-05 4.41765e-05 2.83063e-05 2.27121e-06 4.95981e-05 
3.19689e-05 2.62551e-05 4.41583e-05 1.90329e-05 2.57898e-05 4.43077e-05 1.49214e-05 2.4603e-05 4.51304e-05 
1.30405e-05 2.29902e-05 4.67763e-05 5.50325e-06 1.74042e-05 4.82199e-05 4.01785e-06 1.23651e-05 4.87174e-05 
2.27743e-05 1.11448e-06 4.8263e-05 2.583e-05 1.51371e-06 4.88862e-05 3.007e-05 1.14505e-06 4.84821e-05 
3.07937e-05 1.9574e-07 4.72694e-05 3.65259e-05 9.2354e-07 4.7354e-05 5.69201e-05 9.05436e-06 4.36471e-05 
3.03791e-05 6.02173e-06 5.19038e-05 5.8388e-05 1.15825e-05 4.27554e-05 3.09913e-05 8.60194e-06 5.2777e-05 
9.27895e-06 2.54393e-06 4.61965e-05 5.89068e-05 1.29554e-05 4.19358e-05 4.77125e-05 2.64646e-06 4.51435e-05 
5.62872e-05 1.85967e-05 4.14223e-05 5.44097e-05 1.97585e-05 4.23896e-05 5.24928e-05 2.10388e-05 4.25178e-05 
4.53308e-05 2.27986e-05 4.54645e-05 3.51093e-05 2.62063e-05 4.35431e-05 3.01189e-05 2.67733e-05 4.31138e-05 
4.75132e-06 1.82939e-05 4.73181e-05 2.50401e-06 1.2997e-05 4.79087e-05 1.01659e-05 3.88899e-06 4.79682e-05 
1.98007e-05 1.44665e-06 4.82403e-05 3.34921e-05 5.91216e-07 4.74907e-05 4.28072e-05 1.42232e-06 4.60327e-05 
5.67452e-05 7.9306e-06 4.30381e-05 5.91431e-05 1.41787e-05 4.1034e-05 5.36813e-05 2.07981e-05 4.12918e-05 
4.36099e-05 2.40886e-05 4.43014e-05 3.79223e-05 2.6003e-05 4.29936e-05 3.22963e-05 2.67828e-05 4.27221e-05 
2.77789e-05 2.68609e-05 4.30435e-05 6.54583e-06 9.1843e-06 4.93958e-05 2.57026e-05 2.68429e-05 4.3031e-05 
1.58197e-05 2.54679e-05 4.3896e-05 2.82093e-05 2.53967e-05 4.60989e-05 1.20377e-05 2.44305e-05 4.41658e-05 
1.32611e-05 2.40485e-05 4.54502e-05 1.04783e-05 2.26667e-05 4.61481e-05 1.33162e-06 1.5932e-05 4.65223e-05 
3.94491e-05 1.03632e-05 5.21057e-05 1.16101e-06 1.44875e-05 4.69116e-05 4.68212e-05 1.88062e-05 4.85084e-05 
2.18579e-06 1.13949e-05 4.77272e-05 2.55763e-05 6.84138e-07 4.79941e-05 3.50492e-05 -7.1194e-08 4.63214e-05 
4.50686e-05 2.2e-06 4.60368e-05 5.44154e-05 5.58537e-06 4.33385e-05 5.59559e-05 6.8449e-06 4.30017e-05 
[...]
CELL_DATA 2
FIELD FieldData 1
vtkOriginalCellIds 1 2 vtkIdType
0 0 
POINT_DATA 2832
FIELD FieldData 1
vtkOriginalPointIds 1 2832 vtkIdType
0 1 2 3 4 5 6 7 8 
9 10 11 12 13 14 15 16 17 
18 19 20 21 22 23 24 25 26 
27 28 29 30 31 32 33 34 35 
36 37 38 39 40 41 42 43 44 
45 46 47 48 49 50 51 52 53 
54 55 56 57 58 59 60 61 62 
63 64 65 66 67 68 69 70 71 
72 73 74 75 76 77 78 79 80 
81 82 83 84 85 86 87 88 89 
90 91 92 93 94 95 96 97 98 
99 100 101 102 103 104 105 106 107 
108 109 110 111 112 113 114 115 116 
117 118 119 120 121 122 123 124 125 
126 127 128 129 130 131 132 133 134 
135 136 137 138 139 140 141 142 143 
144 145 146 147 148 149 150 151 152 
153 154 155 156 157 158 159 160 161 
162 163 164 165 166 167 168 169 170 
171 172 173 174 175 176 177 178 179 
180 181 182 183 184 185 186 187 188 
189 190 191 192 193 194 195 196 197 
198 199 200 201 202 203 204 205 206 
207 208 209 210 211 212 213 214 215 
216 217 218 219 220 221 222 223 224 
225 226 227 228 229 230 231 232 233 
234 235 236 237 238 239 240 241 242 
243 244 245 246 247 248 249 250 251 
252 253 254 255 256 257 258 259 260 
261 262 263 264 265 266 267 268 269 
270 271 272 273 274 275 276 277 278 
279 280 281 282 283 284 285 286 287 
288 289 290 291 292 293 294 295 296 
297 298 299 300 301 302 303 304 305 
306 307 308 309 310 311 312 313 314 
315 316 317 318 319 320 321 322 323 
324 325 326 327 328 329 330 331 332 
333 334 335 336 337 338 339 340 341 
342 343 344 345 346 347 348 349 350 
351 352 353 354 355 356 357 358 359 
360 361 362 363 364 365 366 367 368 
369 370 371 372 373 374 375 376 377 
378 379 380 381 382 383 384 385 386 
387 388 389 390 391 392 393 394 395 
396 397 398 399 400 401 402 403 404 
405 406 407 408 409 410 411 412 413 
414 415 416 417 418 419 420 421 422 
423 424 425 426 427 428 429 430 431 
432 433 434 435 436 437 438 439 440 
441 442 443 444 445 446 447 448 449 
450 451 452 453 454 455 456 457 458 
459 460 461 462 463 464 465 466 467 
468 469 470 471 472 473 474 475 476 
477 478 479 480 481 482 483 484 485 
486 487 488 489 490 491 492 493 494 
495 496 497 498 499 500 501 502 503 
504 505 506 507 508 509 510 511 512 
513 514 515 516 517 518 519 520 521 
522 523 524 525 526 527 528 529 530 
531 532 533 534 535 536 537 538 539 
540 541 542 543 544 545 546 547 548 
549 550 551 552 553 554 555 556 557 
558 559 560 561 562 563 564 565 566 
567 568 569 570 571 572 573 574 575 
576 577 578 579 580 581 582 583 584 
585 586 587 588 589 590 591 592 593 
594 595 596 597 598 599 600 601 602 
603 604 605 606 607 608 609 610 611 
612 613 614 615 616 617 618 619 620 
621 622 623 624 625 626 627 628 629 
630 631 632 633 634 635 636 637 638 
639 640 641 642 643 644 645 646 647 
648 649 650 651 652 653 654 655 656 
657 658 659 660 661 662 663 664 665 
666 667 668 669 670 671 672 673 674 
675 676 677 678 679 680 681 682 683 
684 685 686 687 688 689 690 691 692 
693 694 695 696 697 698 699 700 701 
702 703 704 705 706 707 708 709 710 
711 712 713 714 715 716 717 718 719 
720 721 722 723 724 725 726 727 728 
729 730 731 732 733 734 735 736 737 
738 739 740 741 742 743 744 745 746 
747 748 749 750 751 752 753 754 755 
756 757 758 759 760 761 762 763 764 
765 766 767 768 769 770 771 772 773 
774 775 776 777 778 779 780 781 782 
783 784 785 786 787 788 789 790 791 
792 793 794 795 796 797 798 799 800 
801 802 803 804 805 806 807 808 809 
810 811 812 813 814 815 816 817 818 
819 820 821 822 823 824 825 826 827 
828 829 830 831 832 833 834 835 836 
837 838 839 840 841 842 843 844 845 
846 847 848 849 850 851 852 853 854 
855 856 857 858 859 860 861 862 863 
864 865 866 867 868 869 870 871 872 
873 874 875 876 877 878 879 880 881 
882 883 884 885 886 887 888 889 890 
891 892 893 894 895 896 897 898 899 
900 901 902 903 904 905 906 907 908 
909 910 911 912 913 914 915 916 917 
918 919 920 921 922 923 924 925 926 
927 928 929 930 931 932 933 934 935 
936 937 938 939 940 941 942 943 944 
945 946 947 948 949 950 951 952 953 
954 955 956 957 958 959 960 961 962 
963 964 965 966 967 968 969 970 971 
972 973 974 975 976 977 978 979 980 
981 982 983 984 985 986 987 988 989 
990 991 992 993 994 995 996 997 998 
999 1000 1001 1002 1003 1004 1005 1006 1007 
1008 1009 1010 1011 1012 1013 1014 1015 1016 
1017 1018 1019 1020 1021 1022 1023 1024 1025 
1026 1027 1028 1029 1030 1031 1032 1033 1034 
1035 1036 1037 1038 1039 1040 1041 1042 1043 
1044 1045 1046 1047 1048 1049 1050 1051 1052 
1053 1054 1055 1056 1057 1058 1059 1060 1061 
1062 1063 1064 1065 1066 1067 1068 1069 1070 
1071 1072 1073 1074 1075 1076 1077 1078 1079 
1080 1081 1082 1083 1084 1085 1086 1087 1088 
1089 1090 1091 1092 1093 1094 1095 1096 1097 
1098 1099 1100 1101 1102 1103 1104 1105 1106 
1107 1108 1109 1110 1111 1112 1113 1114 1115 
1116 1117 1118 1119 1120 1121 1122 1123 1124 
1125 1126 1127 1128 1129 1130 1131 1132 1133 
1134 1135 1136 1137 1138 1139 1140 1141 1142 
1143 1144 1145 1146 1147 1148 1149 1150 1151 
1152 1153 1154 1155 1156 1157 1158 1159 1160 
1161 1162 1163 1164 1165 1166 1167 1168 1169 
1170 1171 1172 1173 1174 1175 1176 1177 1178 
1179 1180 1181 1182 1183 1184 1185 1186 1187 
1188 1189 1190 1191 1192 1193 1194 1195 1196 
1197 1198 1199 1200 1201 1202 1203 1204 1205 
1206 1207 1208 1209 1210 1211 1212 1213 1214 
1215 1216 1217 1218 1219 1220 1221 1222 1223 
1224 1225 1226 1227 1228 1229 1230 1231 1232 
1233 1234 1235 1236 1237 1238 1239 1240 1241 
1242 1243 1244 1245 1246 1247 1248 1249 1250 
1251 1252 1253 1254 1255 1256 1257 1258 1259 
1260 1261 1262 1263 1264 1265 1266 1267 1268 
1269 1270 1271 1272 1273 1274 1275 1276 1277 
1278 1279 1280 1281 1282 1283 1284 1285 1286 
1287 1288 1289 1290 1291 1292 1293 1294 1295 
1296 1297 1298 1299 1300 1301 1302 1303 1304 
1305 1306 1307 1308 1309 1310 1311 1312 1313 
1314 1315 1316 1317 1318 1319 1320 1321 1322 
1323 1324 1325 1326 1327 1328 1329 1330 1331 
1332 1333 1334 1335 1336 1337 1338 1339 1340 
1341 1342 1343 1344 1345 1346 1347 1348 1349 
1350 1351 1352 1353 1354 1355 1356 1357 1358 
1359 1360 1361 1362 1363 1364 1365 1366 1367 
1368 1369 1370 1371 1372 1373 1374 1375 1376 
1377 1378 1379 1380 1381 1382 1383 1384 1385 
1386 1387 1388 1389 1390 1391 1392 1393 1394 
1395 1396 1397 1398 1399 1400 1401 1402 1403 
1404 1405 1406 1407 1408 1409 1410 1411 1412 
1413 1414 1415 0 1 2 3 4 5 
6 7 8 9 10 11 12 13 14 
15 16 17 18 19 20 21 22 23 
24 25 26 27 28 29 30 31 32 
33 34 35 36 37 38 39 40 41 
42 43 44 45 46 47 48 49 50 
51 52 53 54 55 56 57 58 59 
60 61 62 63 64 65 66 67 68 
69 70 71 72 73 74 75 76 77 
78 79 80 81 82 83 84 85 86 
87 88 89 90 91 92 93 94 95 
96 97 98 99 100 101 102 103 104 
105 106 107 108 109 110 111 112 113 
114 115 116 117 118 119 120 121 122 
123 124 125 126 127 128 129 130 131 
132 133 134 135 136 137 138 139 140 
141 142 143 144 145 146 147 148 149 
150 151 152 153 154 155 156 157 158 
159 160 161 162 163 164 165 166 167 
168 169 170 171 172 173 174 175 176 
177 178 179 180 181 182 183 184 185 
186 187 188 189 190 191 192 193 194 
195 196 197 198 199 200 201 202 203 
204 205 206 207 208 209 210 211 212 
213 214 215 216 217 218 219 220 221 
222 223 224 225 226 227 228 229 230 
231 232 233 234 235 236 237 238 239 
240 241 242 243 244 245 246 247 248 
249 250 251 252 253 254 255 256 257 
258 259 260 261 262 263 264 265 266 
267 268 269 270 271 272 273 274 275 
276 277 278 279 280 281 282 283 284 
285 286 287 288 289 290 291 292 293 
294 295 296 297 298 299 300 301 302 
303 304 305 306 307 308 309 310 311 
312 313 314 315 316 317 318 319 320 
321 322 323 324 325 326 327 328 329 
330 331 332 333 334 335 336 337 338 
339 340 341 342 343 344 345 346 347 
348 349 350 351 352 353 354 355 356 
357 358 359 360 361 362 363 364 365 
366 367 368 369 370 371 372 373 374 
375 376 377 378 379 380 381 382 383 
384 385 386 387 388 389 390 391 392 
393 394 395 396 397 398 399 400 401 
402 403 404 405 406 407 408 409 410 
411 412 413 414 415 416 417 418 419 
420 421 422 423 424 425 426 427 428 
429 430 431 432 433 434 435 436 437 
438 439 440 441 442 443 444 445 446 
447 448 449 450 451 452 453 454 455 
456 457 458 459 460 461 462 463 464 
465 466 467 468 469 470 471 472 473 
474 475 476 477 478 479 480 481 482 
483 484 485 486 487 488 489 490 491 
492 493 494 495 496 497 498 499 500 
501 502 503 504 505 506 507 508 509 
510 511 512 513 514 515 516 517 518 
519 520 521 522 523 524 525 526 527 
528 529 530 531 532 533 534 535 536 
537 538 539 540 541 542 543 544 545 
546 547 548 549 550 551 552 553 554 
555 556 557 558 559 560 561 562 563 
564 565 566 567 568 569 570 571 572 
573 574 575 576 577 578 579 580 581 
582 583 584 585 586 587 588 589 590 
591 592 593 594 595 596 597 598 599 
600 601 602 603 604 605 606 607 608 
609 610 611 612 613 614 615 616 617 
618 619 620 621 622 623 624 625 626 
627 628 629 630 631 632 633 634 635 
636 637 638 639 640 641 642 643 644 
645 646 647 648 649 650 651 652 653 
654 655 656 657 658 659 660 661 662 
663 664 665 666 667 668 669 670 671 
672 673 674 675 676 677 678 679 680 
681 682 683 684 685 686 687 688 689 
690 691 692 693 694 695 696 697 698 
699 700 701 702 703 704 705 706 707 
708 709 710 711 712 713 714 715 716 
717 718 719 720 721 722 723 724 725 
726 727 728 729 730 731 732 733 734 
735 736 737 738 739 740 741 742 743 
744 745 746 747 748 749 750 751 752 
753 754 755 756 757 758 759 760 761 
762 763 764 765 766 767 768 769 770 
771 772 773 774 775 776 777 778 779 
780 781 782 783 784 785 786 787 788 
789 790 791 792 793 794 795 796 797 
798 799 800 801 802 803 804 805 806 
807 808 809 810 811 812 813 814 815 
816 817 818 819 820 821 822 823 824 
825 826 827 828 829 830 831 832 833 
834 835 836 837 838 839 840 841 842 
843 844 845 846 847 848 849 850 851 
852 853 854 855 856 857 858 859 860 
861 862 863 864 865 866 867 868 869 
870 871 872 873 874 875 876 877 878 
879 880 881 882 883 884 885 886 887 
888 889 890 891 892 893 894 895 896 
897 898 899 900 901 902 903 904 905 
906 907 908 909 910 911 912 913 914 
915 916 917 918 919 920 921 922 923 
924 925 926 927 928 929 930 931 932 
933 934 935 936 937 938 939 940 941 
942 943 944 945 946 947 948 949 950 
951 952 953 954 955 956 957 958 959 
960 961 962 963 964 965 966 967 968 
969 970 971 972 973 974 975 976 977 
978 979 980 981 982 983 984 985 986 
987 988 989 990 991 992 993 994 995 
996 997 998 999 1000 1001 1002 1003 1004 
1005 1006 1007 1008 1009 1010 1011 1012 1013 
1014 1015 1016 1017 1018 1019 1020 1021 1022 
1023 1024 1025 1026 1027 1028 1029 1030 1031 
1032 1033 1034 1035 1036 1037 1038 1039 1040 
1041 1042 1043 1044 1045 1046 1047 1048 1049 
1050 1051 1052 1053 1054 1055 1056 1057 1058 
1059 1060 1061 1062 1063 1064 1065 1066 1067 
1068 1069 1070 1071 1072 1073 1074 1075 1076 
1077 1078 1079 1080 1081 1082 1083 1084 1085 
1086 1087 1088 1089 1090 1091 1092 1093 1094 
1095 1096 1097 1098 1099 1100 1101 1102 1103 
1104 1105 1106 1107 1108 1109 1110 1111 1112 
1113 1114 1115 1116 1117 1118 1119 1120 1121 
1122 1123 1124 1125 1126 1127 1128 1129 1130 
1131 1132 1133 1134 1135 1136 1137 1138 1139 
1140 1141 1142 1143 1144 1145 1146 1147 1148 
1149 1150 1151 1152 1153 1154 1155 1156 1157 
1158 1159 1160 1161 1162 1163 1164 1165 1166 
1167 1168 1169 1170 1171 1172 1173 1174 1175 
1176 1177 1178 1179 1180 1181 1182 1183 1184 
1185 1186 1187 1188 1189 1190 1191 1192 1193 
1194 1195 1196 1197 1198 1199 1200 1201 1202 
1203 1204 1205 1206 1207 1208 1209 1210 1211 
1212 1213 1214 1215 1216 1217 1218 1219 1220 
1221 1222 1223 1224 1225 1226 1227 1228 1229 
1230 1231 1232 1233 1234 1235 1236 1237 1238 
1239 1240 1241 1242 1243 1244 1245 1246 1247 
1248 1249 1250 1251 1252 1253 1254 1255 1256 
1257 1258 1259 1260 1261 1262 1263 1264 1265 
1266 1267 1268 1269 1270 1271 1272 1273 1274 
1275 1276 1277 1278 1279 1280 1281 1282 1283 
1284 1285 1286 1287 1288 1289 1290 1291 1292 
1293 1294 1295 1296 1297 1298 1299 1300 1301 
1302 1303 1304 1305 1306 1307 1308 1309 1310 
1311 1312 1313 1314 1315 1316 1317 1318 1319 
1320 1321 1322 1323 1324 1325 1326 1327 1328 
1329 1330 1331 1332 1333 1334 1335 1336 1337 
1338 1339 1340 1341 1342 1343 1344 1345 1346 
1347 1348 1349 1350 1351 1352 1353 1354 1355 
1356 1357 1358 1359 1360 1361 1362 1363 1364 
1365 1366 1367 1368 1369 1370 1371 1372 1373 
1374 1375 1376 1377 1378 1379 1380 1381 1382 
1383 1384 1385 1386 1387 1388 1389 1390 1391 
1392 1393 1394 1395 1396 1397 1398 1399 1400 
1401 1402 1403 1404 1405 1406 1407 1408 1409 
1410 1411 1412 1413 1414 1415 

CELL_TYPES 2
42
42

CELL_DATA 2
FIELD FieldData 2
cell_id 1 2 int
0 1
METADATA
INFORMATION 0
cell_type_id 1 2 int
2 0
METADATA
INFORMATION 0

