<VTKFile type="UnstructuredGrid" version="1.0" byte_order="LittleEndian" header_type="UInt64">
  <UnstructuredGrid>
    <FieldData>
      <DataArray type="Float64" Name="TimeValue" NumberOfTuples="1" format="ascii" RangeMin="199" RangeMax="199">
        199
      </DataArray>
    </FieldData>
    <Piece NumberOfPoints="552" NumberOfCells="4">
      <PointData>
      </PointData>
      <CellData>
        <DataArray type="Int32" Name="cell_id" format="ascii" RangeMin="0" RangeMax="3">
          0 1 2 3
        </DataArray>
        <DataArray type="Int32" Name="cell_type_id" format="ascii" RangeMin="0" RangeMax="0">
          0 0 0 0
        </DataArray>
        <DataArray type="Float32" Name="cell_area" format="ascii" RangeMin="1.2109999669718263e-9" RangeMax="1.2140000116289684e-9">
          1.214e-9 1.213e-9 1.211e-9 1.212e-9
        </DataArray>
        <DataArray type="Float32" Name="cell_volume" format="ascii" RangeMin="3.898999805879372e-15" RangeMax="3.912999989948065e-15">
          3.913e-15 3.899e-15 3.904e-15 3.904e-15
        </DataArray>
        <DataArray type="Float32" Name="cell_pressure" format="ascii" RangeMin="-77.47000122070312" RangeMax="378.5">
          -77.47 103.1 378.5 68.54
        </DataArray>
        <DataArray type="Float32" Name="cell_growth_rate" format="ascii" RangeMin="0" RangeMax="0">
          0 0 0 0
        </DataArray>
        <DataArray type="Float32" Name="cell_division_vol" format="ascii" RangeMin="1.8999999327768552e-14" RangeMax="1.8999999327768552e-14">
          1.9e-14 1.9e-14 1.9e-14 1.9e-14
        </DataArray>
        <DataArray type="Int32" Name="cell_is_static" format="ascii" RangeMin="0" RangeMax="0">
          0 0 0 0
        </DataArray>
        <DataArray type="Float32" Name="target_volume" format="ascii" RangeMin="3.9000001517900795e-15" RangeMax="3.912000067553831e-15">
          3.912e-15 3.9e-15 3.91e-15 3.905e-15
        </DataArray>
      </CellData>
      <Points>
        <DataArray type="Float32" Name="Points" NumberOfComponents="3" format="ascii" RangeMin="0.000001856920820541123" RangeMax="0.00002278133520685876">
          0.000017532124 -0.0000030706626 -0.000012558232 0.000015404821 -0.0000033975302 -0.000015766946
          0.000015940623 -0.0000066618804 -0.000013750355 0.000012972918 -0.000006420142 -0.000016628057
          0.000016959297 0.0000027749934 -0.000009992655 0.000016748265 9.1875745e-7 -0.000013033093
          0.000008960898 8.871777e-8 -0.000018362929 0.000018214549 -0.0000010401264 -0.000006372135
          0.000018143875 -5.530517e-7 -0.000009512876 0.000010681801 -0.0000037119712 -0.000018379704
          0.000008312383 -0.000012758035 -0.000007956116 0.000017689474 -0.000006117789 -0.000010238383
          0.000016847951 -0.000008224277 -0.000007673544 0.000015729067 -0.000009306404 -0.000010989996
          0.000013164781 -0.000009572932 -0.000014069691 0.000009323695 -0.000010532346 -0.000014620552
          0.000007849058 0.000005754902 -0.000014741245 0.000010132608 0.000003563246 -0.000016654005
          0.0000064724973 0.00000324262 -0.000016852106 0.0000051895613 5.688686e-7 -0.000017866194
          0.000017121709 0.0000021607286 -0.0000064306896 0.0000055209202 -0.0000025776474 -0.000018440707
          0.00001706105 -4.3094e-7 -0.0000035960875 0.000002411592 -0.0000044475532 -0.00001686114
          0.00001567623 -0.0000036715235 -0.0000020403356 0.000017762346 -0.0000030961837 -0.0000046669797
          0.000017139348 -0.0000060488715 -0.0000048857055 0.000005980987 -0.000009515649 -0.000015601556
          0.000012422199 -0.000011160072 -0.0000046618375 0.000014777259 0.000004444066 -0.000012084539
          0.000008846314 0.000007171742 -0.00001162339 0.0000042140014 0.0000048882944 -0.000014252848
          0.0000028613508 0.0000021838428 -0.000015745121 0.000015725584 0.0000020731622 -0.0000031422946
          0.0000022930033 -0.000001006998 -0.00001669258 0.0000033388794 -0.00001027597 -0.000013058737
          0.000009376002 -0.0000124120925 -0.000011104446 8.697342e-7 0.0000035197002 -0.000009603387
          0.000012808056 -0.000008899011 -0.0000021606968 0.0000063843586 -0.000012471134 -0.000009530259
          0.000012159546 0.000006611228 -0.0000062693384 0.000012204947 0.000006749456 -0.000010094811
          0.0000057166462 0.000006519251 -0.000012438307 2.1801897e-7 -0.0000026539274 -0.000014802194
          7.778898e-7 -0.00000808133 -0.000012214503 0.000009029957 0.000007532585 -0.000007988184
          0.0000056296944 0.0000070036044 -0.000009532179 0.000009345026 0.000004438569 -0.0000015899612
          -0.0000010503627 -0.0000018528729 -0.000011336277 0.0000013677097 0.0000032068242 -0.0000130626395
          0.000011671793 0.0000015312789 -0.00001733465 0.0000050682024 -0.0000026555063 4.6115215e-7
          0.000009269925 -0.0000120750265 -0.0000050434146 0.000011597752 0.0000056106546 -0.000013838684
          0.000018344415 -0.00000383632 -0.0000075560292 0.000013755856 0.0000025551867 -0.00001549336
          0.0000054270877 -0.00000638113 -0.000017702961 0.000006073269 -0.000011552136 -0.000012362459
          0.000014540768 0.0000044844273 -0.00000471852 0.000015022851 0.0000050850185 -0.000008250731
          0.000013013602 -8.084152e-7 -0.000017473152 -8.0853505e-7 -0.0000053974595 -0.00001048864
          0.000011328142 -0.000012505705 -0.00000790254 0.00001259966 0.0000028463503 -0.0000016280435
          0.0000027327098 -0.000007817762 -0.00001556271 0.000009044267 -0.00000742772 -0.000017333572
          3.0738366e-7 2.3597033e-7 -0.000013990244 0.00001116234 -0.000011346445 -0.000012908435
          0.000012918692 -0.000011573636 -0.000010909788 0.000007778893 -0.0000046797863 -0.000018542236
          0.000016645345 -0.0000015695553 -0.000014261731 0.000003039453 0.0000054800803 -0.000011215726
          0.000017777782 -0.000006100776 -0.0000074465684 0.000013267514 -0.000003540274 -0.000017458246
          0.000015433432 -2.3590236e-7 -0.000015537791 0.0000057567167 0.0000066721586 -0.000006180985
          0.000008289353 -0.0000026446446 -0.000018772686 0.000011088169 -0.000008640749 -0.000016184387
          0.000008810265 0.0000064617325 -0.0000042375805 0.000014567307 -0.000010908532 -0.00000787605
          4.107768e-7 -0.000005566261 -0.000014081305 0.000018206681 -0.000003474203 -0.000010038171
          0.0000055053365 -0.000011857825 -0.0000064784476 0.000015031482 -0.0000069237212 -0.000002401769
          0.000003308054 -0.00001097996 -0.000009488935 0.0000063228777 0.000003223058 -0.0000012230845
          0.00001530161 -0.000009174845 -0.0000047183735 0.0000069752396 -0.0000078957455 -8.3960776e-7
          -3.222623e-7 0.0000012165634 -0.000011192262 0.000005886199 0.00000539176 -0.0000034989048
          0.000011691078 0.0000053736658 -0.000003303073 0.000012378911 -0.0000059822264 -5.34558e-7
          -0.000001244563 -0.0000025595575 -0.000008603922 0.0000028189002 0.000005479455 -0.000007971711
          -6.8253104e-7 -0.0000016258074 -0.000005754339 0.000014488927 -1.3897152e-7 -0.0000012942604
          9.632777e-7 -0.000008949278 -0.000008724876 0.0000060508937 -0.000009817358 -0.00000251587
          0.0000030253877 -0.0000024909502 -6.9591476e-7 0.0000018591604 -0.000009784516 -0.000011091232
          0.0000040129175 -0.000007485914 -0.0000022520614 0.0000018318177 -0.000007463173 -0.0000053198855
          0.000013007451 -0.0000027039314 -1.460925e-7 0.000009480282 -0.000010131587 -0.0000022920121
          0.0000045595802 0.0000010916513 -9.0458076e-7 0.000010432363 0.000002122392 -4.0847138e-7
          0.0000024155336 -0.0000053461104 -0.0000026124862 0.0000014424189 0.000002950021 -0.000006110945
          0.000010049497 -0.0000040005652 1.4184583e-7 -5.09352e-7 7.8963774e-7 -0.000008118698
          1.4251294e-8 -0.000006726938 -0.000007905541 8.5770245e-7 -0.0000020471264 -0.0000028872776
          0.00000450074 -0.000009800273 -0.000003889834 -5.4883975e-7 -0.0000040203813 -0.000012911891
          0.000007928388 -0.0000014735988 3.0640155e-7 0.0000051562038 -0.0000047988324 -7.173761e-8
          0.000009937234 -0.000007746891 -5.384139e-7 0.000008297772 0.0000021097326 -4.6378042e-7
          0.000007025968 -0.000011282726 -0.0000037845605 0.0000053825856 2.2860567e-7 1.5883653e-7
          -3.944987e-8 -0.000007297652 -0.000009861076 0.0000073122806 0.000004954378 -0.000002614939
          0.000011472528 -1.8602351e-7 -1.0425805e-7 0.0000037965294 0.0000041795993 -0.0000045806532
          4.3087198e-7 -3.8772777e-7 -0.0000038863905 0.0000097998345 -0.0000055619953 1.6414478e-7
          0.0000026646383 -0.000010247634 -0.000006828494 0.0000024607452 6.7063013e-7 -0.000002857383
          0.0000075578605 -0.000005409191 4.01594e-7 0.0000039854135 0.0000032587095 -0.0000030537724
          4.1729217e-7 6.420915e-7 -0.0000052605465 -5.822574e-7 -0.000005207504 -0.000007247396
          3.0979598e-7 -0.00000471709 -0.0000048076404 0.000013522657 0.0000047087287 0.000003218444
          0.0000134551865 -0.0000047369513 0.00001743863 0.000015894379 -0.000010162296 0.000006536411
          0.000016337954 -0.0000035973442 0.0000018646725 0.00001705403 -0.00000529405 0.000002974085
          0.000018133396 -0.000002576521 0.000004666506 0.000015211695 0.0000021565747 0.00000238175
          0.000016333981 -7.0826326e-7 0.0000020788038 0.000018041406 -0.000005989742 0.0000054407737
          -5.3120476e-7 -8.0843813e-7 0.000011354392 0.0000057330567 -0.0000070444544 0.000017269918
          0.000014108388 -0.000009954931 0.0000035380112 0.00001153334 -0.000010533309 0.0000031175996
          0.000015805617 0.0000037651128 0.000004761824 0.000017412824 0.0000011414594 0.000004717418
          0.000018669829 -2.6218686e-7 0.000008107881 0.000018922283 -0.0000041270196 0.000008338794
          0.000010767771 0.0000048358875 0.000015178871 0.000012811269 -0.000011722596 0.000005458257
          0.000010510847 0.0000058148457 0.0000034238935 0.0000090238855 0.000006893712 0.000012075069
          0.000011416708 0.0000068492172 0.000005796674 0.000014868669 -0.000005822968 0.0000012353548
          0.000013944615 -0.000011860468 0.000008221097 0.000009093467 -0.000011822649 0.0000047905132
          0.000016647522 -0.0000044612225 0.000014897877 0.000018108529 -0.0000060543343 0.000011673316
          0.000012500802 -0.000012209898 0.000010940466 0.000010895518 -0.0000127312915 0.000007641644
          0.000012454279 0.000006899 0.000008806685 -7.395854e-7 -0.0000034946727 0.00001115409
          0.000015767167 -0.000008313983 0.000013733868 0.000011125314 -0.000010932153 0.000014459682
          0.000009603963 -0.000012877458 0.000009744505 0.0000075433527 -0.000012929428 0.000007720184
          0.00001527048 0.0000051209777 0.000010269033 0.000009770057 -0.000012540748 0.000012077826
          0.000009118582 0.000007376513 0.00000833952 0.000006984485 -0.000012494479 0.000010695044
          0.000012405382 0.000006239302 0.000012078208 0.000016318547 -0.0000079797155 0.0000037810491
          0.000002214751 -0.000005984865 0.000015450165 0.000010438163 -0.0000025717184 0.00001866882
          0.000008005253 -0.000009470641 0.000016244505 0.000007469582 -0.0000114667055 0.000013821889
          0.00001080954 0.0000015139897 0.000017748049 0.000009764978 -0.000006579576 0.000017922428
          0.0000043683053 -0.000009461318 0.000014689124 0.000017142896 0.000003251547 0.000007731507
          0.000005090422 -0.000011368237 0.000012297033 0.000017851364 -0.000007835975 0.0000085271595
          0.00001742839 0.0000018965337 0.00001146691 0.0000063886764 0.0000065851477 0.000012405418
          0.000007698776 0.000005713711 0.0000143721545 0.0000073955866 -3.3753346e-7 0.000018547766
          0.000007038708 -0.0000040324044 0.00001859119 0.000002818816 -0.000010269627 0.000011136515
          0.000016372785 -2.0574426e-7 0.000014982312 0.000015748416 -0.000010359959 0.000010418454
          0.0000051774496 0.00000511679 0.00001431914 0.0000041563894 0.000003302709 0.000015707095
          0.000004325272 8.2230554e-7 0.000017284305 0.000001962702 0.000001294199 0.000015075467
          0.0000021760075 -0.0000019543975 0.000016233917 2.3657493e-7 -0.0000032505927 0.0000137894285
          0.000014440376 0.0000056732915 0.0000064561677 0.0000015518182 -0.000008178163 0.000012778921
          0.0000106034695 0.0000071657564 0.000010111984 0.000013443751 -0.0000097441325 0.000014422965
          0.000014636503 0.0000036914148 0.000014023914 0.000002489614 0.0000038220087 0.00001346939
          0.000007252621 0.000003310259 0.000016780257 4.958953e-7 -5.9872366e-7 0.000013854764
          0.000018487564 -0.0000021113287 0.00001186825 0.00001283696 -0.000008220916 0.000016200405
          8.6008484e-8 -0.0000058978894 0.000012093043 0.000013915573 0.0000016658827 0.000016550917
          0.0000136474155 -0.0000010748236 0.000017623883 0.000013923533 -0.000010609738 0.000012989082
          0.000012292308 0.0000023742161 8.0381994e-7 0.000012623671 0.0000032339308 0.000016114032
          4.825495e-7 0.0000017362566 0.000012292421 0.000006163836 0.0000070391798 0.000009996127
          0.000015272326 -0.0000026757518 0.000016590322 0.000012059373 -0.0000051322495 3.606713e-7
          0.000014788804 -0.000006664975 0.000015859727 0.000010511959 -0.000009112263 0.000016468724
          0.0000039170104 0.000005815716 0.000011679744 0.000008613541 0.0000067225874 0.000005240199
          0.0000047326503 -0.00001124216 0.0000062071153 0.000012523681 0.0000060213506 0.000004533774
          -4.5928675e-7 -0.0000048476436 0.000008523226 0.000011168147 0.0000039340075 0.0000014657221
          9.643468e-7 -0.000007811868 0.000009185338 0.0000017466602 0.000004058078 0.000010311091
          0.0000036643023 0.0000057793955 0.0000087212175 0.0000047342023 -0.0000021026012 0.000018135803
          -9.460577e-7 -0.0000017007345 0.000008555694 0.000017104478 -0.000008524472 0.000011220828
          0.0000024535257 -0.000010028402 0.000008369479 0.000013924742 2.7108982e-7 6.672899e-7
          -3.3983996e-9 0.0000013961442 0.000009062549 0.000004526754 0.00000446572 0.000005201916
          0.0000051125057 -0.000002696201 4.9439905e-7 0.000012070403 -0.000008050131 0.0000013424564
          0.0000046086247 -0.00001190848 0.000009291776 0.0000015317729 -0.0000020978491 0.0000039384868
          0.000007166749 -0.0000034919735 4.9601215e-7 0.000014455551 -0.000008385795 0.0000022683132
          0.000017276203 -0.000008101228 0.0000059503336 0.000008961769 -0.000009401347 0.0000020110272
          0.000009056805 -0.000006511445 8.96765e-7 0.00001068824 -4.8547486e-7 -1.2247293e-7
          1.4020034e-7 -1.9862779e-7 0.0000068892327 0.000006811863 0.0000051422376 0.0000037511124
          0.0000059203203 0.0000063858483 0.000006459917 0.000009439642 0.000001561187 7.3482124e-7
          0.000008789584 0.000004273103 0.0000017192777 0.0000054612265 4.3393703e-7 2.7511976e-7
          0.0000021694768 0.0000018514849 0.000005486441 0.0000135217015 -0.0000025221286 2.6750612e-7
          0.0000046953774 -0.000010760065 0.0000046399414 0.000008014928 -0.0000015832936 2.6352745e-7
          0.0000040419322 -0.0000044189537 0.000017491784 0.0000063566326 -0.000010395294 0.0000033233375
          0.000003669516 -7.218668e-7 0.000001717532 0.000006405304 -0.0000080349355 0.0000017107482
          0.0000060232137 0.0000030588985 0.0000017062277 1.4764574e-7 -0.0000030551766 0.000005894199
          0.000002343041 -0.000003999898 0.0000027650945 0.000009922081 -0.0000032993646 1.1861852e-7
          0.0000020818518 0.000003720498 0.000007836222 0.0000039137735 -0.000008100184 0.0000035463
          0.000002684672 -0.0000072264993 0.0000045076245 0.00000485256 -0.000005891805 0.000001177743
          7.6372083e-7 -2.0135235e-7 0.000005094276 0.0000068229756 -0.0000056669514 0.000001080714
          0.000006743329 -0.000011759276 0.0000055713367 0.0000035851724 8.84502e-7 0.0000024989051
          0.000004072144 0.0000028036577 0.000003862063 0.0000027453625 -0.000008312871 0.000006006029
          6.345815e-7 -0.0000056839226 0.0000064651085 -0.0000034460973 0.000015930222 0.000006163579
          0.0000028213017 0.000012354658 0.000007224427 -0.000013644637 0.000007158539 9.0471593e-7
          0.000002815716 0.000014361602 0.0000043186196 1.7906147e-7 0.000014849799 0.0000068079084
          -0.000004592831 0.000005601021 0.000010863062 0.00000483359 0.000011505405 0.0000047430617
          0.0000046835153 0.00001271962 0.0000019333474 0.0000016679708 0.000014763853 -0.0000026659238
          0.00000167101 0.000010730151 -0.000006700325 7.2324735e-7 0.000007782958 -0.000007881015
          9.148281e-7 -0.0000013791736 8.4209546e-7 -0.0000082283095 0.000014879037 -0.0000030954345
          3.5195706e-7 0.000013432016 -0.0000057967172 -0.0000013857106 0.000010957363 -0.000007936897
          -0.000002760622 0.000007612471 -0.000008953484 0.00000207586 0.000009578361 0.000009339442
          -3.731938e-7 0.000016369915 0.0000034259338 -0.0000035444584 0.000013814435 -0.000006242383
          -0.0000050153 0.000010425562 -0.000008220194 -0.0000037069112 0.000004316613 -0.000008626465
          -0.000004488382 0.0000012449028 -0.0000071657996 -0.000004410486 0.00001615465 -0.000003027692
          -0.0000040624686 0.00001703413 0.0000023852738 5.9680644e-7 0.000012394742 0.0000090111225
          -0.000007313578 0.000012808536 -0.000006198259 -0.000008709449 0.000009267535 -0.0000072125285
          -0.0000062197237 0.000006687094 -0.0000085846395 0.0000023120874 0.000015121302 8.607002e-7
          -0.0000024544622 0.000013153199 0.000009293233 -0.000006010636 0.000013842746 0.000008272313
          -0.000007796742 0.000016004265 0.0000031866657 -6.5931295e-7 0.000009772257 0.00001058902
          -0.000004039123 0.000009564684 0.00001082774 -0.00001063392 0.000011564015 -0.0000044300796
          -0.000009370136 0.000005343178 -0.000006932203 -0.000010842546 0.000008806503 0.000007586287
          -0.000005290819 -8.915331e-7 -0.000004202325 -0.000011021111 0.000013721191 0.0000026736598
          -0.000008620193 0.0000014785402 -0.0000052985024 -0.0000068141885 0.000003232229 -0.000007717408
          -0.00001287129 0.0000088337765 0.000004199486 -0.000011463446 0.0000076004458 -0.000005134382
          -0.000008676796 0.0000013434167 0.000007598803 -0.000011572901 0.000003939007 -0.0000044358285
          -0.000011611537 0.0000010063687 0.0000015326838 -0.0000076740125 0.0000082707875 0.000010128617
          -0.00000952825 0.0000051391967 0.000008757301 -0.00001206865 0.00000550912 0.000005941051
          0.000003361859 0.000011861749 -0.0000043159735 -0.00001282815 0.0000036837346 0.0000026376852
          -0.000012533674 0.000002659305 -0.0000011043791 -0.000010656934 0.0000011947883 -0.0000031773252
          -0.000008037569 -8.9145357e-7 -0.000002452601 -0.00000788724 -7.639948e-7 0.000004605011
          -0.0000067649157 0.000003294478 0.000009840167 -0.0000036153328 0.0000019741951 0.000009781941
          -0.0000030016852 -7.7636946e-7 0.0000072570665 -0.000010558558 -1.2356209e-7 -4.886973e-7
          0.0000043323557 0.0000128834645 -0.0000011252449 -0.000010669586 0.0000011357727 0.000004545119
          -0.0000014370653 0.00001554137 -0.000003977185 -0.0000011946415 0.000016638312 -5.25621e-7
          -0.000009131306 0.000013820837 0.0000061551495 -0.0000129375 0.000010921112 8.2764035e-7
          -0.0000064650353 0.00001662533 -2.3405516e-7 -0.000011142615 0.000013445987 -0.0000011879505
          -0.000006615856 0.00001552422 0.000005926047 -0.000011486292 0.000011551437 0.000005468213
          -0.000008621832 0.000011469952 0.000008619397 0.000005460738 0.000009436177 -0.00000212063
          0.0000034508932 0.000008228406 -0.0000055205364 0.000006065487 0.00000945971 0.0000018424374
          0.000005480409 0.000011076551 2.7281453e-7 -0.000013069046 0.0000058684545 -0.000002349309
          0.0000040541377 0.000009882112 0.000007290465 -0.000010174185 0.000011487843 0.000007282164
          -0.0000122565025 0.000011346958 -0.000002032575 -0.000010681474 0.0000029875828 0.0000068472305
          -0.0000128506545 0.000009210449 -0.0000023898872 -0.000013216328 0.0000062708314 0.0000036133106
          -0.000006373838 0.000011266746 0.000009826975 -0.0000058664514 0.000014818498 -0.000004708555
          -0.000005594484 0.000016405778 0.000004464451 -0.0000028756135 -2.0328767e-7 -0.0000055020255
          -0.00001167246 0.0000031874235 0.0000051214097 -0.0000039799697 0.000016964133 -4.6388922e-7
          -0.000013310978 0.000004529316 2.325066e-8 -0.000012397598 0.000011394657 0.0000033167883
          -0.000009284691 0.000015454783 2.1880685e-7 -0.0000026648904 -0.0000014712385 -0.0000034986822
          0.0000016459347 -1.250159e-7 -0.0000021435262 -0.0000013732725 0.000002270435 -0.0000072658077
          -0.0000061403775 -0.0000017435354 0.0000015907291 0.0000052156706 0.0000030159201 0.0000013252777
          -0.0000010137984 0.0000052468345 -0.000008716022 0.000004989159 0.0000061412343 -0.0000035952282
          0.000006140199 0.0000063755297 -2.3174559e-7 2.6281563e-7 2.7644225e-7 -0.000004649339
          -0.0000061452115 -9.848761e-7 0.000006262851 -0.000006587924 0.0000011992444 -0.0000064723677
          0.0000057914544 0.0000057043508 0.0000032665125 0.0000010236243 0.0000062765025 0.000009707963
          0.0000054103566 0.000008252301 0.0000052959244 0.0000017268849 0.0000031073623 0.0000073798074
          -0.0000039267316 -0.000001950061 0.00000430648 -0.0000014594638 0.0000042057404 0.000010294119
          -0.000009416884 -7.9311036e-7 0.0000023362145 -5.858936e-7 -0.0000017811379 9.4436e-7
          0.000004720708 0.0000031784587 0.0000029909631 0.0000035613211 0.0000069134758 0.000007796596
          0.0000031629002 9.0259806e-7 0.0000025645425 -5.9165524e-7 0.0000017736097 0.000008547184
          -0.0000048265324 0.000012250922 0.00000975054 9.804534e-7 0.0000041696885 -0.000006820895
          1.6356918e-7 7.2608543e-7 0.000006615653 -0.0000073272463 0.0000055274495 0.000010156587
          0.0000031894285 1.225691e-7 5.389969e-7 0.000003870691 0.0000019819015 -0.0000016611792
          0.000002674354 0.000005863543 -0.000006196747 0.000003638339 0.000004416615 0.000006127235
          -0.0000037371549 -0.0000018971767 0.0000027349745 0.0000025877034 0.0000032387425 -0.0000044820704
          9.1551414e-7 -3.2670732e-7 0.000004696291 -0.0000030878307 -0.0000020439302 -3.8286205e-7
          0.0000023898442 0.0000017641809 0.0000048917623 -3.0062964e-8 -0.0000014856753 -0.0000017504049
          0.0000044683798 0.0000062798963 0.000006072221 -0.0000020737452 0.00000693848 0.000011103266
          0.000005163169 0.000004248841 -0.0000014839898 -0.0000020349278 -0.0000014294708 0.000005294995
          -0.000006121319 -0.0000016084524 0.0000038907183 -0.0000074238606 -0.0000011527994 -6.830894e-8
          0.000003955949 0.0000030137767 -0.0000029654639 -0.000006317441 4.0606506e-7 0.000008575457
          8.8695384e-7 0.0000027841686 -0.0000058940423 5.8790437e-7 0.000003841556 0.00000932137
          -0.0000049567607 -0.0000017834278 -0.0000020449456 -0.0000010028326 -5.390408e-7 0.000005978441
          -0.0000012092038 -0.0000017516159 0.0000033812578 9.564915e-7 -5.752143e-7 0.0000030906458
          -0.0000016721721 -0.00001529127 -0.000008417778 -0.000008405304 -0.000018222137 0.0000058994415
          -0.00000921618 -0.000009549279 0.000009153131 9.320778e-7 -0.000016121654 -0.0000066842845
          7.4633596e-7 -0.000018743998 -0.000004106282 -0.000004980127 -0.000019229132 -0.0000055139235
          0.0000032551413 -0.000017711072 -0.0000015722629 -0.000012871062 -0.000012315732 -0.0000040860164
          -0.000005112027 -0.0000065219656 -0.0000088095685 -0.000008370383 -0.0000110485535 -0.0000085998645
          -0.000005063112 -0.000016557206 -0.000007945021 -0.000008475238 -0.0000148951285 -0.000007808162
          -0.000007952412 -0.00001797183 -0.0000059538684 -0.000007096219 -0.000007691116 0.0000093818135
          0.0000047990534 -0.00001571697 0.0000010181241 0.0000023102264 -0.00001868184 0.0000020887128
          3.3427722e-7 -0.000020112428 -6.345756e-7 -0.000008531337 -0.0000068689355 -0.000007508741
          -0.000011010865 -0.000015886371 -0.0000049485393 0.0000045617894 -0.000013929115 0.0000047881617
          0.0000037069894 -0.000016541142 0.0000041230887 -0.0000014473559 -0.000020370324 0.0000028950212
          -0.0000049671307 -0.000020943346 5.6236945e-7 -0.00000328377 -0.000011681162 0.00001041721
          -0.0000054091815 -0.000013176024 -0.000009340686 -0.000010761034 -0.0000038024164 -0.0000021944388
          -0.000011387898 -0.000009499899 -0.0000062657114 0.0000027853582 -0.000015823589 0.0000063118214
          8.8898423e-7 -0.00001824802 0.0000056280032 -0.000002424792 -0.00001929823 0.0000061757046
          -0.0000020517696 -0.000018323242 -0.000006433098 -0.000008739413 -0.000019823636 4.3731546e-7
          -0.0000112441685 -0.000017594306 -0.000001186114 -0.000008558575 -0.0000036620136 -0.0000051953166
          -0.0000021824403 -0.000005262766 0.000008270827 -0.000011257458 -0.0000061375567 -0.0000048239203
          -0.000013092638 -0.000014930908 6.970671e-7 -0.000011026085 -0.000017498114 0.000002998503
          7.917906e-7 -0.000015697005 0.000008116023 -0.0000016961319 -0.000017478125 0.00000795568
          -0.000013176917 -0.000008496904 -0.0000029045868 -0.000013928934 -0.000011400046 -4.4507448e-7
          -0.0000027986173 -0.000020368298 -0.0000029560604 -1.6962107e-7 -0.000004771304 -0.0000057661173
          -0.000013786877 -0.000008894179 0.0000021792723 -0.000012875191 -0.0000061317537 -6.322479e-8
          -0.000013502191 -0.000012350987 0.0000033501904 -0.000005227658 -0.000017541997 0.000007958293
          -0.0000069148696 -0.000020087107 -0.0000028975 -8.457481e-7 -0.00000985622 0.000009592661
          -0.000010986171 -0.0000038780254 0.0000017016395 -0.00001242925 -0.0000062060494 0.000003599097
          -0.000012627988 -0.000009305355 0.0000055247874 -0.000010807579 -0.0000115742005 0.000008008414
          -0.0000056744498 -0.000014364452 0.00000975626 -0.000008785729 -0.000015090018 0.000008185395
          -0.0000054364677 -0.0000039882 -0.000006612461 -0.000008442564 -0.000002472145 0.0000029019484
          -0.000009829127 -0.0000044952885 0.0000055514724 -0.000007367748 -0.00001146098 0.00000986809
          0.000005446349 -0.000012493866 0.0000022424479 -0.000010334787 -0.000007761716 0.0000077423365
          -0.000012463061 -0.000012123502 0.0000058033525 -0.0000023394273 -0.000014965524 0.000009627037
          -0.000010825962 -0.000012822013 -0.000006954609 -0.0000032602072 -0.000007970995 0.000009781872
          -0.0000053751064 -0.000020107946 0.0000044932826 0.0000030362955 -0.000016249754 -0.0000045563206
          -0.000012655734 -0.000015060903 -0.000002261404 0.000002986561 -0.000012837633 -0.0000060342177
          -0.000011777005 -0.000014602355 0.000005698603 -0.000010234477 -0.000016575194 0.0000058749856
          -9.3625914e-7 -0.0000023319735 0.0000013392379 -0.0000126210625 -0.000015063714 0.0000032708522
          0.0000046414825 -0.000013941077 -0.000002539159 -0.000008434882 -0.000019618632 0.0000033166023
          5.3334537e-7 -0.000012305666 0.000009125486 -0.0000036175738 -0.000014344108 -0.000009141072
          -0.000004961441 -0.000010007772 -0.000009829512 0.000004603025 -0.000010262087 0.0000045666516
          -0.000013349914 -0.000013506571 -0.0000015036907 -0.000009581686 -0.000018440987 -0.0000035491623
          -0.000011520386 -0.000006745055 0.000005881894 -0.000005296779 -0.000009657818 0.000010163265
          -0.0000026550135 -0.0000028647767 -0.0000039173024 -0.0000021549465 -0.000012151905 -0.000009634921
          9.710731e-7 -0.000010061447 -0.000008233504 0.000005237473 -0.000010457701 -7.876478e-7
          -0.000007068378 -0.000004529612 0.000007716062 -0.000007979713 -0.0000024517021 -0.0000031722395
          -0.0000021836868 -0.000020841157 -5.7582238e-8 2.0927881e-7 -0.0000072896714 -0.000007404049
          0.000005418693 -0.000013295752 1.4669263e-7 -0.000006180808 -0.0000017300642 0.0000016044711
          -0.000013795284 -0.000008725089 -2.5375533e-7 -0.0000065822987 -0.0000023910263 0.00000518019
          -0.000009230125 -0.000019233563 -0.0000019294482 -0.000007038188 -0.000020417841 0.0000021420828
          -0.0000023869743 -0.0000050676117 -0.0000073346714 -0.000008613617 -0.0000060185175 0.000007942003
          0.000004586494 -0.0000072025473 1.7565745e-7 -0.0000049934793 -0.00000550144 0.000008818617
          8.516457e-7 -0.0000034642253 -0.0000017956428 -0.000012110287 -0.0000058049773 -0.000002723809
          0.0000048354586 -0.000014730319 0.0000032136013 -0.000005824718 -0.0000022742254 -0.000004296072
          0.000003349715 -0.000013284043 0.0000071710715 0.0000041895596 -0.000007645413 -0.0000021077403
          0.0000049129776 -0.000009245118 0.0000020788887 -0.0000037473635 -0.0000019078657 0.000004422236
          0.0000023657437 -0.000005297058 -0.0000026508035 -0.0000035874236 -0.0000032848955 0.000006657346
          -0.0000016989754 -0.0000025547665 0.0000043441164 -0.000009359371 -0.0000027680521 4.6419345e-7
          0.0000018794816 -0.000007563375 -0.000005371056 0.0000027634414 -0.0000083580635 0.000006021066
          2.3282428e-8 -0.0000069161647 0.0000080106165 0.000002484525 -0.0000041379617 0.0000024357369
          0.0000011059781 -0.0000027754286 3.933884e-7 -0.0000020579512 -0.0000083724035 -0.000009214916
          2.2874889e-7 -0.0000027473711 0.0000031053096 0.0000040321306 -0.000008195883 0.0000036508397
          0.0000041215135 -0.00001077006 -0.000004145926 0.0000014504237 -0.000005383611 0.000005292729