# vtk DataFile Version 4.2
vtk output
ASCII
DATASET UNSTRUCTURED_GRID
POINTS 552 float
1.75321E-05 -3.07066E-06 -1.25582E-05 1.54048E-05 -3.39753E-06 -1.57669E-05 1.59406E-05 -6.66188E-06 -1.37504E-05 
1.29729E-05 -6.42014E-06 -1.66281E-05 1.69593E-05 2.77499E-06 -9.99265E-06 1.67483E-05 9.18757E-07 -1.30331E-05 
8.96090E-06 8.87178E-08 -1.83629E-05 1.82145E-05 -1.04013E-06 -6.37213E-06 1.81439E-05 -5.53052E-07 -9.51288E-06 
1.06818E-05 -3.71197E-06 -1.83797E-05 8.31238E-06 -1.27580E-05 -7.95612E-06 1.76895E-05 -6.11779E-06 -1.02384E-05 
1.68480E-05 -8.22428E-06 -7.67354E-06 1.57291E-05 -9.30640E-06 -1.09900E-05 1.31648E-05 -9.57293E-06 -1.40697E-05 
9.32369E-06 -1.05323E-05 -1.46206E-05 7.84906E-06 5.75490E-06 -1.47412E-05 1.01326E-05 3.56325E-06 -1.66540E-05 
6.47250E-06 3.24262E-06 -1.68521E-05 5.18956E-06 5.68869E-07 -1.78662E-05 1.71217E-05 2.16073E-06 -6.43069E-06 
5.52092E-06 -2.57765E-06 -1.84407E-05 1.70610E-05 -4.30940E-07 -3.59609E-06 2.41159E-06 -4.44755E-06 -1.68611E-05 
1.56762E-05 -3.67152E-06 -2.04034E-06 1.77623E-05 -3.09618E-06 -4.66698E-06 1.71393E-05 -6.04887E-06 -4.88571E-06 
5.98099E-06 -9.51565E-06 -1.56016E-05 1.24222E-05 -1.11601E-05 -4.66184E-06 1.47773E-05 4.44407E-06 -1.20845E-05 
8.84631E-06 7.17174E-06 -1.16234E-05 4.21400E-06 4.88829E-06 -1.42528E-05 2.86135E-06 2.18384E-06 -1.57451E-05 
1.57256E-05 2.07316E-06 -3.14229E-06 2.29300E-06 -1.00700E-06 -1.66926E-05 3.33888E-06 -1.02760E-05 -1.30587E-05 
9.37600E-06 -1.24121E-05 -1.11044E-05 8.69734E-07 3.51970E-06 -9.60339E-06 1.28081E-05 -8.89901E-06 -2.16070E-06 
6.38436E-06 -1.24711E-05 -9.53026E-06 1.21595E-05 6.61123E-06 -6.26934E-06 1.22049E-05 6.74946E-06 -1.00948E-05 
5.71665E-06 6.51925E-06 -1.24383E-05 2.18019E-07 -2.65393E-06 -1.48022E-05 7.77890E-07 -8.08133E-06 -1.22145E-05 
9.02996E-06 7.53259E-06 -7.98818E-06 5.62969E-06 7.00360E-06 -9.53218E-06 9.34503E-06 4.43857E-06 -1.58996E-06 
-1.05036E-06 -1.85287E-06 -1.13363E-05 1.36771E-06 3.20682E-06 -1.30626E-05 1.16718E-05 1.53128E-06 -1.73347E-05 
5.06820E-06 -2.65551E-06 4.61152E-07 9.26992E-06 -1.20750E-05 -5.04341E-06 1.15978E-05 5.61065E-06 -1.38387E-05 
1.83444E-05 -3.83632E-06 -7.55603E-06 1.37559E-05 2.55519E-06 -1.54934E-05 5.42709E-06 -6.38113E-06 -1.77030E-05 
6.07327E-06 -1.15521E-05 -1.23625E-05 1.45408E-05 4.48443E-06 -4.71852E-06 1.50229E-05 5.08502E-06 -8.25073E-06 
1.30136E-05 -8.08415E-07 -1.74732E-05 -8.08535E-07 -5.39746E-06 -1.04886E-05 1.13281E-05 -1.25057E-05 -7.90254E-06 
1.25997E-05 2.84635E-06 -1.62804E-06 2.73271E-06 -7.81776E-06 -1.55627E-05 9.04427E-06 -7.42772E-06 -1.73336E-05 
3.07384E-07 2.35970E-07 -1.39902E-05 1.11623E-05 -1.13464E-05 -1.29084E-05 1.29187E-05 -1.15736E-05 -1.09098E-05 
7.77889E-06 -4.67979E-06 -1.85422E-05 1.66453E-05 -1.56956E-06 -1.42617E-05 3.03945E-06 5.48008E-06 -1.12157E-05 
1.77778E-05 -6.10078E-06 -7.44657E-06 1.32675E-05 -3.54027E-06 -1.74582E-05 1.54334E-05 -2.35902E-07 -1.55378E-05 
5.75672E-06 6.67216E-06 -6.18099E-06 8.28935E-06 -2.64464E-06 -1.87727E-05 1.10882E-05 -8.64075E-06 -1.61844E-05 
8.81027E-06 6.46173E-06 -4.23758E-06 1.45673E-05 -1.09085E-05 -7.87605E-06 4.10777E-07 -5.56626E-06 -1.40813E-05 
1.82067E-05 -3.47420E-06 -1.00382E-05 5.50534E-06 -1.18578E-05 -6.47845E-06 1.50315E-05 -6.92372E-06 -2.40177E-06 
3.30805E-06 -1.09800E-05 -9.48893E-06 6.32288E-06 3.22306E-06 -1.22308E-06 1.53016E-05 -9.17485E-06 -4.71837E-06 
6.97524E-06 -7.89575E-06 -8.39608E-07 -3.22262E-07 1.21656E-06 -1.11923E-05 5.88620E-06 5.39176E-06 -3.49890E-06 
1.16911E-05 5.37367E-06 -3.30307E-06 1.23789E-05 -5.98223E-06 -5.34558E-07 -1.24456E-06 -2.55956E-06 -8.60392E-06 
2.81890E-06 5.47946E-06 -7.97171E-06 -6.82531E-07 -1.62581E-06 -5.75434E-06 1.44889E-05 -1.38972E-07 -1.29426E-06 
9.63278E-07 -8.94928E-06 -8.72488E-06 6.05089E-06 -9.81736E-06 -2.51587E-06 3.02539E-06 -2.49095E-06 -6.95915E-07 
1.85916E-06 -9.78452E-06 -1.10912E-05 4.01292E-06 -7.48591E-06 -2.25206E-06 1.83182E-06 -7.46317E-06 -5.31989E-06 
1.30075E-05 -2.70393E-06 -1.46093E-07 9.48028E-06 -1.01316E-05 -2.29201E-06 4.55958E-06 1.09165E-06 -9.04581E-07 
1.04324E-05 2.12239E-06 -4.08471E-07 2.41553E-06 -5.34611E-06 -2.61249E-06 1.44242E-06 2.95002E-06 -6.11094E-06 
1.00495E-05 -4.00057E-06 1.41846E-07 -5.09352E-07 7.89638E-07 -8.11870E-06 1.42513E-08 -6.72694E-06 -7.90554E-06 
8.57702E-07 -2.04713E-06 -2.88728E-06 4.50074E-06 -9.80027E-06 -3.88983E-06 -5.48840E-07 -4.02038E-06 -1.29119E-05 
7.92839E-06 -1.47360E-06 3.06402E-07 5.15620E-06 -4.79883E-06 -7.17376E-08 9.93723E-06 -7.74689E-06 -5.38414E-07 
8.29777E-06 2.10973E-06 -4.63780E-07 7.02597E-06 -1.12827E-05 -3.78456E-06 5.38259E-06 2.28606E-07 1.58837E-07 
-3.94499E-08 -7.29765E-06 -9.86108E-06 7.31228E-06 4.95438E-06 -2.61494E-06 1.14725E-05 -1.86024E-07 -1.04258E-07 
3.79653E-06 4.17960E-06 -4.58065E-06 4.30872E-07 -3.87728E-07 -3.88639E-06 9.79983E-06 -5.56200E-06 1.64145E-07 
2.66464E-06 -1.02476E-05 -6.82849E-06 2.46075E-06 6.70630E-07 -2.85738E-06 7.55786E-06 -5.40919E-06 4.01594E-07 
3.98541E-06 3.25871E-06 -3.05377E-06 4.17292E-07 6.42091E-07 -5.26055E-06 -5.82257E-07 -5.20750E-06 -7.24740E-06 
3.09796E-07 -4.71709E-06 -4.80764E-06 1.35227E-05 4.70873E-06 3.21844E-06 1.34552E-05 -4.73695E-06 1.74386E-05 
1.58944E-05 -1.01623E-05 6.53641E-06 1.63380E-05 -3.59734E-06 1.86467E-06 1.70540E-05 -5.29405E-06 2.97408E-06 
1.81334E-05 -2.57652E-06 4.66651E-06 1.52117E-05 2.15657E-06 2.38175E-06 1.63340E-05 -7.08263E-07 2.07880E-06 
1.80414E-05 -5.98974E-06 5.44077E-06 -5.31205E-07 -8.08438E-07 1.13544E-05 5.73306E-06 -7.04445E-06 1.72699E-05 
1.41084E-05 -9.95493E-06 3.53801E-06 1.15333E-05 -1.05333E-05 3.11760E-06 1.58056E-05 3.76511E-06 4.76182E-06 
1.74128E-05 1.14146E-06 4.71742E-06 1.86698E-05 -2.62187E-07 8.10788E-06 1.89223E-05 -4.12702E-06 8.33879E-06 
1.07678E-05 4.83589E-06 1.51789E-05 1.28113E-05 -1.17226E-05 5.45826E-06 1.05108E-05 5.81485E-06 3.42389E-06 
9.02389E-06 6.89371E-06 1.20751E-05 1.14167E-05 6.84922E-06 5.79667E-06 1.48687E-05 -5.82297E-06 1.23535E-06 
1.39446E-05 -1.18605E-05 8.22110E-06 9.09347E-06 -1.18226E-05 4.79051E-06 1.66475E-05 -4.46122E-06 1.48979E-05 
1.81085E-05 -6.05433E-06 1.16733E-05 1.25008E-05 -1.22099E-05 1.09405E-05 1.08955E-05 -1.27313E-05 7.64164E-06 
1.24543E-05 6.89900E-06 8.80669E-06 -7.39585E-07 -3.49467E-06 1.11541E-05 1.57672E-05 -8.31398E-06 1.37339E-05 
1.11253E-05 -1.09322E-05 1.44597E-05 9.60396E-06 -1.28775E-05 9.74451E-06 7.54335E-06 -1.29294E-05 7.72018E-06 
1.52705E-05 5.12098E-06 1.02690E-05 9.77006E-06 -1.25407E-05 1.20778E-05 9.11858E-06 7.37651E-06 8.33952E-06 
6.98449E-06 -1.24945E-05 1.06950E-05 1.24054E-05 6.23930E-06 1.20782E-05 1.63185E-05 -7.97972E-06 3.78105E-06 
2.21475E-06 -5.98486E-06 1.54502E-05 1.04382E-05 -2.57172E-06 1.86688E-05 8.00525E-06 -9.47064E-06 1.62445E-05 
7.46958E-06 -1.14667E-05 1.38219E-05 1.08095E-05 1.51399E-06 1.77480E-05 9.76498E-06 -6.57958E-06 1.79224E-05 
4.36831E-06 -9.46132E-06 1.46891E-05 1.71429E-05 3.25155E-06 7.73151E-06 5.09042E-06 -1.13682E-05 1.22970E-05 
1.78514E-05 -7.83598E-06 8.52716E-06 1.74284E-05 1.89653E-06 1.14669E-05 6.38868E-06 6.58515E-06 1.24054E-05 
7.69878E-06 5.71371E-06 1.43722E-05 7.39559E-06 -3.37533E-07 1.85478E-05 7.03871E-06 -4.03240E-06 1.85912E-05 
2.81882E-06 -1.02696E-05 1.11365E-05 1.63728E-05 -2.05744E-07 1.49823E-05 1.57484E-05 -1.03600E-05 1.04185E-05 
5.17745E-06 5.11679E-06 1.43191E-05 4.15639E-06 3.30271E-06 1.57071E-05 4.32527E-06 8.22306E-07 1.72843E-05 
1.96270E-06 1.29420E-06 1.50755E-05 2.17601E-06 -1.95440E-06 1.62339E-05 2.36575E-07 -3.25059E-06 1.37894E-05 
1.44404E-05 5.67329E-06 6.45617E-06 1.55182E-06 -8.17816E-06 1.27789E-05 1.06035E-05 7.16576E-06 1.01120E-05 
1.34438E-05 -9.74413E-06 1.44230E-05 1.46365E-05 3.69141E-06 1.40239E-05 2.48961E-06 3.82201E-06 1.34694E-05 
7.25262E-06 3.31026E-06 1.67803E-05 4.95895E-07 -5.98724E-07 1.38548E-05 1.84876E-05 -2.11133E-06 1.18683E-05 
1.28370E-05 -8.22092E-06 1.62004E-05 8.60085E-08 -5.89789E-06 1.20930E-05 1.39156E-05 1.66588E-06 1.65509E-05 
1.36474E-05 -1.07482E-06 1.76239E-05 1.39235E-05 -1.06097E-05 1.29891E-05 1.22923E-05 2.37422E-06 8.03820E-07 
1.26237E-05 3.23393E-06 1.61140E-05 4.82550E-07 1.73626E-06 1.22924E-05 6.16384E-06 7.03918E-06 9.99613E-06 
1.52723E-05 -2.67575E-06 1.65903E-05 1.20594E-05 -5.13225E-06 3.60671E-07 1.47888E-05 -6.66497E-06 1.58597E-05 
1.05120E-05 -9.11226E-06 1.64687E-05 3.91701E-06 5.81572E-06 1.16797E-05 8.61354E-06 6.72259E-06 5.24020E-06 
4.73265E-06 -1.12422E-05 6.20712E-06 1.25237E-05 6.02135E-06 4.53377E-06 -4.59287E-07 -4.84764E-06 8.52323E-06 
1.11681E-05 3.93401E-06 1.46572E-06 9.64347E-07 -7.81187E-06 9.18534E-06 1.74666E-06 4.05808E-06 1.03111E-05 
3.66430E-06 5.77940E-06 8.72122E-06 4.73420E-06 -2.10260E-06 1.81358E-05 -9.46058E-07 -1.70073E-06 8.55569E-06 
1.71045E-05 -8.52447E-06 1.12208E-05 2.45353E-06 -1.00284E-05 8.36948E-06 1.39247E-05 2.71090E-07 6.67290E-07 
-3.39840E-09 1.39614E-06 9.06255E-06 4.52675E-06 4.46572E-06 5.20192E-06 5.11251E-06 -2.69620E-06 4.94399E-07 
1.20704E-05 -8.05013E-06 1.34246E-06 4.60862E-06 -1.19085E-05 9.29178E-06 1.53177E-06 -2.09785E-06 3.93849E-06 
7.16675E-06 -3.49197E-06 4.96012E-07 1.44556E-05 -8.38579E-06 2.26831E-06 1.72762E-05 -8.10123E-06 5.95033E-06 
8.96177E-06 -9.40135E-06 2.01103E-06 9.05680E-06 -6.51145E-06 8.96765E-07 1.06882E-05 -4.85475E-07 -1.22473E-07 
1.40200E-07 -1.98628E-07 6.88923E-06 6.81186E-06 5.14224E-06 3.75111E-06 5.92032E-06 6.38585E-06 6.45992E-06 
9.43964E-06 1.56119E-06 7.34821E-07 8.78958E-06 4.27310E-06 1.71928E-06 5.46123E-06 4.33937E-07 2.75120E-07 
2.16948E-06 1.85148E-06 5.48644E-06 1.35217E-05 -2.52213E-06 2.67506E-07 4.69538E-06 -1.07601E-05 4.63994E-06 
8.01493E-06 -1.58329E-06 2.63527E-07 4.04193E-06 -4.41895E-06 1.74918E-05 6.35663E-06 -1.03953E-05 3.32334E-06 
3.66952E-06 -7.21867E-07 1.71753E-06 6.40530E-06 -8.03494E-06 1.71075E-06 6.02321E-06 3.05890E-06 1.70623E-06 
1.47646E-07 -3.05518E-06 5.89420E-06 2.34304E-06 -3.99990E-06 2.76509E-06 9.92208E-06 -3.29936E-06 1.18619E-07 
[...]
CELL_DATA 5
FIELD FieldData 2
Cell_id 1 1 int
1 2 3 4
METADATA
INFORMATION 0

Cell_type_id 1 1 int
0 0 0 0
METADATA
INFORMATION 0

