# vtk DataFile Version 4.2
vtk output
ASCII
DATASET UNSTRUCTURED_GRID
POINTS 951 float
4.4272e-06 1.3503e-06 1.9931e-06 4.3464e-06 2.0384e-06 7.3023e-07 4.5343e-06 1.7478e-06 -7.7036e-07
4.4504e-06 1.0438e-07 2.0959e-06 4.9002e-06 2.5577e-07 5.0134e-07 4.6942e-06 -8.5830e-07 9.8781e-07
3.7622e-06 1.5007e-06 -2.6016e-06 4.6007e-06 -1.9760e-06 2.3750e-07 4.4241e-06 -1.6646e-06 -8.9370e-07
3.1227e-06 3.7361e-06 1.0406e-06 3.4385e-06 2.9092e-06 1.9836e-06 3.9627e-06 2.9840e-06 4.5316e-07
3.6342e-06 3.0521e-06 -9.2956e-07 3.8403e-06 2.4883e-06 -2.0194e-06 3.3693e-06 1.9517e-06 2.9801e-06
-1.8967e-07 4.1567e-07 -4.8417e-06 3.8929e-06 6.0842e-07 3.0533e-06 3.8462e-06 -9.1734e-07 2.9173e-06
3.8089e-06 -7.5768e-07 -2.9513e-06 3.9633e-06 -2.0422e-06 -2.2017e-06 3.0758e-06 -1.8258e-06 3.2395e-06
3.8646e-06 -2.6882e-06 1.3270e-06 3.7265e-06 -3.1441e-06 2.2775e-07 3.9439e-06 -2.8698e-06 -8.8689e-07
2.6853e-06 -3.0127e-06 -2.6539e-06 2.3068e-06 4.3145e-06 5.6068e-07 2.3040e-06 3.8964e-06 1.7784e-06
3.0393e-06 3.7434e-06 -5.4321e-08 2.7373e-06 3.9718e-06 -1.0685e-06 2.0426e-06 3.7841e-06 -2.4833e-06
2.5982e-06 3.0240e-06 2.9901e-06 2.9567e-06 2.9399e-06 -2.4227e-06 2.3292e-06 2.4256e-06 -3.6680e-06
-2.9171e-06 -6.7539e-07 3.8901e-06 2.0083e-06 -1.3189e-07 4.6026e-06 2.8685e-06 9.3016e-07 -3.8000e-06
2.8695e-06 -8.4361e-07 4.0035e-06 3.0813e-06 -3.6689e-07 -3.8954e-06 2.8564e-06 -1.8997e-06 -3.5673e-06
2.0295e-06 -1.3491e-06 -4.2209e-06 4.1551e-06 -1.6912e-06 2.0607e-06 7.1261e-07 -1.2667e-06 -4.6768e-06
2.8320e-06 -4.0016e-06 -7.3054e-07 2.3727e-06 -3.1635e-06 2.9438e-06 1.8701e-06 -3.9894e-06 2.0746e-06
2.2340e-06 -4.4314e-06 3.6083e-07 1.7742e-06 -4.4974e-06 -6.2243e-07 2.1098e-06 -4.0494e-06 -1.6319e-06
1.4214e-06 4.5506e-06 1.5455e-06 1.2717e-06 4.6835e-06 -9.7829e-07 1.2895e-06 2.7542e-06 3.7907e-06
7.7631e-07 3.9896e-06 2.8013e-06 1.2031e-06 -4.6007e-06 -1.5260e-06 1.1027e-06 -4.0519e-06 -2.4742e-06
3.2615e-07 4.7086e-06 1.1951e-06 7.2864e-07 4.8604e-06 1.7898e-07 2.4945e-07 4.8586e-06 -1.0173e-06
9.0858e-07 4.3490e-06 -1.9258e-06 -1.2845e-07 1.6253e-06 -4.7202e-06 4.2049e-07 3.9018e-06 -3.0679e-06
3.1000e-07 2.5808e-06 4.1749e-06 9.9347e-07 2.9142e-06 -3.8091e-06 -4.3812e-06 1.8197e-06 1.6296e-06
-3.8652e-06 -3.0168e-06 -5.2461e-07 -2.8450e-06 5.5309e-07 -3.9197e-06 1.1426e-06 -2.9498e-06 3.6329e-06
8.7242e-07 -3.8611e-06 2.9844e-06 1.3293e-07 -3.9818e-06 -3.0954e-06 4.7326e-07 -4.8591e-06 -3.8156e-07
1.8340e-07 -4.4821e-06 -1.9302e-06 -7.8244e-07 4.6056e-06 1.8158e-06 -5.8328e-07 4.9737e-06 3.5819e-08
-9.9878e-07 4.5983e-06 -1.1490e-06 -6.1739e-07 4.5357e-06 -2.0666e-06 -9.8093e-07 3.8440e-06 2.8466e-06
-1.0388e-06 3.7362e-06 -2.8011e-06 -5.8107e-07 3.1886e-06 -3.8611e-06 -9.0815e-07 2.9877e-06 3.8204e-06
-1.1012e-06 2.2597e-06 -4.0939e-06 -9.2397e-07 2.0538e-06 4.4345e-06 4.8921e-06 -5.4409e-07 -9.3513e-07
-7.2773e-07 -4.9177e-07 -4.9422e-06 -2.2550e-06 3.1889e-06 3.0040e-06 -8.3086e-07 -1.6710e-06 -4.5313e-06
-8.0587e-07 -2.7319e-06 -4.1773e-06 -6.4860e-07 -3.3653e-06 -3.3823e-06 -8.1731e-07 -4.7927e-06 -8.9427e-07
-9.6806e-07 -4.1245e-06 -2.4596e-06 -1.9650e-06 4.4091e-06 7.9484e-07 -2.0305e-06 4.4729e-06 -8.4127e-07
-1.5727e-06 3.1223e-06 -3.4982e-06 -1.3889e-06 1.3979e-06 -4.5443e-06 -1.2610e-06 4.6850e-07 4.7250e-06
-1.9237e-06 -1.5710e-07 -4.5587e-06 -1.9532e-06 -8.2430e-07 4.5107e-06 1.7654e-06 -1.6704e-06 4.3048e-06
-1.8556e-06 -4.4157e-06 1.3452e-06 -1.9525e-06 -4.5248e-06 1.5758e-07 -2.1102e-06 4.0648e-06 1.9969e-06
-1.8019e-06 4.1753e-06 -1.9590e-06 -4.0793e-06 -3.2503e-08 2.6676e-06 -2.9073e-06 3.7613e-06 -1.0119e-06
-2.0262e-06 1.9507e-06 4.0365e-06 -2.2691e-06 2.0502e-06 -3.9495e-06 -2.9535e-06 1.0701e-06 3.8337e-06
-2.7337e-06 -1.0493e-06 -4.0906e-06 -1.9443e-06 -2.0225e-06 4.0449e-06 -2.5593e-06 -2.9610e-06 2.9203e-06
-1.9137e-06 -3.2146e-06 -3.2474e-06 -2.1186e-06 -3.8088e-06 2.1641e-06 -2.9225e-06 -3.8236e-06 9.3605e-07
-3.2854e-06 3.0573e-06 -1.8912e-06 -3.1279e-06 2.1505e-06 3.1446e-06 -3.9764e-06 2.8768e-06 -3.4196e-07
-3.2389e-06 2.2372e-06 -3.0076e-06 -4.0142e-06 1.1249e-06 2.8096e-06 -3.8813e-06 7.6029e-07 -2.9308e-06
-4.2886e-06 -1.8827e-06 1.4967e-06 -3.9180e-06 -9.7689e-07 3.0030e-06 -3.2266e-06 -2.0576e-06 2.9824e-06
-3.2997e-06 -3.1157e-06 1.9706e-06 -3.0851e-06 -3.0662e-06 -1.9455e-06 -1.8465e-06 -1.6852e-06 -4.3382e-06
-4.1823e-06 2.2155e-06 -1.4048e-06 -4.2488e-06 1.1787e-06 -1.9101e-06 -4.8182e-06 6.5314e-07 -3.4879e-07
-4.8552e-06 -4.9308e-07 8.8166e-07 -4.4702e-06 2.2853e-08 -1.8656e-06 -4.4154e-06 -1.0644e-06 -1.5420e-06
-3.6203e-06 -1.7777e-06 -2.7661e-06 -5.3525e-07 -1.3661e-06 4.6732e-06 8.7900e-07 -5.6321e-07 4.8436e-06
3.1405e-06 -3.6685e-06 8.8316e-07 -5.5789e-07 -4.3254e-06 2.1462e-06 6.4281e-07 -2.9452e-06 -3.7923e-06
1.5841e-06 9.5064e-07 -4.5757e-06 -8.2202e-07 -4.7752e-06 7.5437e-07 -2.0905e-07 -2.8702e-06 4.2019e-06
4.2962e-06 4.2548e-07 -2.5683e-06 -3.5786e-06 3.2447e-06 1.5050e-06 -1.1093e-06 -3.5907e-06 3.1665e-06
2.3221e-06 1.4799e-06 4.2185e-06 6.7903e-07 -4.8259e-06 9.2468e-07 -2.5805e-06 -4.0648e-06 -8.0823e-07
8.3748e-07 1.5621e-06 4.7151e-06 -2.9697e-06 3.8823e-06 5.6259e-07 -4.6065e-06 -1.7057e-06 -8.4247e-08
9.2991e-06 3.0634e-06 1.4706e-06 9.5542e-06 2.5022e-06 6.2532e-07 9.4141e-06 2.9195e-06 -5.9955e-07
9.2765e-06 2.3031e-06 -2.5666e-06 9.4185e-06 1.9818e-06 2.3901e-06 9.7136e-06 1.5923e-06 1.2568e-06
9.7706e-06 1.4669e-06 -3.1307e-07 9.6030e-06 1.4460e-06 -1.7655e-06 9.3901e-06 1.0422e-06 -3.0102e-06
9.6265e-06 9.2873e-07 2.1164e-06 9.8305e-06 3.9436e-07 1.0861e-06 9.8835e-06 4.5935e-07 -9.2497e-08
9.7304e-06 3.5364e-07 -1.7387e-06 9.6716e-06 -1.1464e-07 2.1133e-06 9.8122e-06 -6.4905e-07 9.7369e-07
9.8684e-06 -5.6281e-07 -2.1686e-08 9.7613e-06 -7.2213e-07 -1.4977e-06 9.4647e-06 -2.2075e-07 -2.9031e-06
9.0765e-06 -1.6035e-07 -3.9860e-06 9.6098e-06 -1.3863e-06 1.9610e-06 9.7341e-06 -1.7674e-06 -9.2735e-08
9.4625e-06 -1.7601e-06 -2.2509e-06 9.4312e-06 -2.8818e-06 5.7535e-07 9.5258e-06 -2.3387e-06 -1.1662e-06
9.3028e-06 -3.3466e-06 -4.9469e-07 8.5001e-06 4.9298e-06 1.1378e-06 8.5765e-06 4.9917e-06 -2.7763e-07
8.5658e-06 4.6573e-06 -1.6825e-06 8.5290e-06 3.9733e-06 3.0543e-06 8.8252e-06 4.0206e-06 1.9762e-06
9.0039e-06 4.0253e-06 8.8858e-07 9.0724e-06 3.9355e-06 -1.8570e-07 9.0493e-06 3.7755e-06 -1.3397e-06
8.8926e-06 3.5571e-06 -2.4458e-06 8.1484e-06 3.8842e-06 -4.0734e-06 8.5676e-06 3.0335e-06 3.9067e-06
9.0257e-06 2.8830e-06 2.8951e-06 8.8108e-06 2.8814e-06 -3.4426e-06 8.9942e-06 2.0541e-06 3.6169e-06
9.0166e-06 1.8905e-06 -3.6507e-06 8.3917e-06 1.4397e-06 -5.0801e-06 8.5577e-06 1.0517e-06 4.8828e-06
9.0939e-06 9.7848e-07 3.8283e-06 8.9216e-06 9.8676e-07 -4.1955e-06 8.6023e-06 -1.5505e-07 4.9720e-06
9.1020e-06 -4.9806e-07 3.8933e-06 8.3427e-06 -3.8084e-07 -5.3804e-06 8.5837e-06 -1.2524e-06 4.8374e-06
8.9870e-06 -1.8030e-06 3.7516e-06 9.0604e-06 -1.8123e-06 -3.5491e-06 8.7403e-06 -1.0278e-06 -4.5441e-06
8.2872e-06 -2.3627e-06 4.8925e-06 9.0612e-06 -2.6731e-06 2.9308e-06 8.5923e-06 -2.1537e-06 -4.4051e-06
8.1364e-06 -1.9847e-06 -5.2945e-06 8.5177e-06 -3.2855e-06 3.8375e-06 8.7156e-06 -3.6880e-06 2.9052e-06
9.1030e-06 -3.3960e-06 1.8994e-06 9.0755e-06 -3.8805e-06 4.6036e-07 9.0624e-06 -3.5609e-06 -1.7315e-06
8.8174e-06 -3.3308e-06 -2.9517e-06 8.4540e-06 -3.1870e-06 -4.0131e-06 8.6317e-06 -4.3527e-06 2.0532e-06
8.6635e-06 -4.6526e-06 1.0069e-06 8.7252e-06 -4.6429e-06 -2.2243e-07 8.7139e-06 -4.5011e-06 -1.2450e-06
8.1472e-06 -5.0287e-06 -2.4251e-06 7.3719e-06 6.0498e-06 -2.5881e-06 7.3658e-06 5.9250e-06 2.9432e-06
7.6661e-06 5.9401e-06 1.9439e-06 7.8607e-06 5.9169e-06 9.4921e-07 7.8649e-06 6.0005e-06 -2.1579e-07
7.8979e-06 5.8056e-06 -1.4683e-06 7.6013e-06 5.0296e-06 3.8962e-06 8.0170e-06 5.0260e-06 2.8818e-06
7.9922e-06 5.0295e-06 -2.9610e-06 7.4970e-06 5.0228e-06 -4.0541e-06 7.8140e-06 3.9663e-06 4.6465e-06
7.3717e-06 2.8900e-06 5.9656e-06 8.0601e-06 2.9387e-06 4.9873e-06 8.0740e-06 2.9390e-06 -4.9358e-06
7.3938e-06 3.0262e-06 -5.8509e-06 7.8704e-06 2.0110e-06 5.6663e-06 7.5197e-06 2.0165e-06 -6.1515e-06
7.8872e-06 9.8292e-07 5.9343e-06 7.9106e-06 8.0603e-07 -5.9261e-06 7.9076e-06 -3.4757e-07 6.0134e-06
7.5580e-06 -6.9448e-08 -6.4328e-06 7.7157e-06 -1.3196e-06 -6.0728e-06 7.6561e-06 -2.1474e-06 5.9443e-06
7.4174e-06 -2.7279e-06 -5.9922e-06 7.7195e-06 -3.7380e-06 4.9931e-06 7.9189e-06 -3.3493e-06 -4.9391e-06
7.9988e-06 -4.3046e-06 3.9310e-06 8.0694e-06 -4.9243e-06 2.9020e-06 7.8836e-06 -4.6625e-06 -3.7273e-06
7.1330e-06 -4.7154e-06 -4.9975e-06 7.3320e-06 -5.2523e-06 4.1201e-06 7.9978e-06 -5.5636e-06 1.6249e-06
7.9910e-06 -5.7575e-06 -8.0245e-07 7.7796e-06 -5.8266e-06 -1.7933e-06 9.9989e-07 2.6059e-06 -9.5430e-06
7.8034e-06 -6.0522e-06 3.3973e-07 7.2478e-06 -6.0508e-06 -2.9994e-06 6.1928e-06 7.2692e-06 2.6337e-06
6.7694e-06 6.9743e-06 1.8511e-06 6.9745e-06 6.9962e-06 8.1323e-07 7.0030e-06 6.9753e-06 -5.4753e-07
6.7095e-06 6.9553e-06 -2.1726e-06 6.8318e-06 6.0057e-06 3.9277e-06 6.9815e-06 6.0826e-06 -3.5205e-06
6.7933e-06 5.6636e-06 -4.4553e-06 7.0340e-06 4.9294e-06 4.9753e-06 6.9829e-06 4.8738e-06 -5.0867e-06
6.3205e-06 4.5876e-06 -6.1374e-06 6.5696e-06 3.1189e-06 6.7610e-06 6.9909e-06 3.8814e-06 5.9040e-06
7.0988e-06 3.9909e-06 -5.6693e-06 6.7032e-06 3.3801e-06 -6.4961e-06 6.8522e-06 2.0358e-06 6.9062e-06
6.8204e-06 1.8327e-06 -6.9463e-06 7.0172e-06 1.0203e-06 6.9376e-06 6.9828e-06 7.3766e-07 -7.0374e-06
6.7256e-06 2.3702e-08 7.3021e-06 6.4166e-06 -8.8505e-07 -7.5224e-06 6.9766e-06 -1.3075e-06 6.9564e-06
6.9360e-06 -1.6977e-06 -6.8846e-06 6.1299e-06 -2.4476e-06 7.4099e-06 6.9686e-06 -2.8066e-06 6.4871e-06
6.1689e-06 -2.0341e-06 -7.5097e-06 7.0716e-06 -3.7912e-06 -5.8228e-06 6.7041e-06 -3.1577e-06 -6.6037e-06
6.9033e-06 -4.3112e-06 5.6703e-06 6.3539e-06 -4.4108e-06 -6.2305e-06 6.5495e-06 -5.5386e-06 4.9442e-06
7.0545e-06 -5.6658e-06 -3.9958e-06 6.4439e-06 -5.4832e-06 -5.1565e-06 6.5321e-06 -6.3008e-06 3.9679e-06
7.0855e-06 -6.8104e-06 1.1291e-06 7.0857e-06 -6.9065e-06 -1.3824e-07 6.3481e-06 -6.3714e-06 -4.1577e-06
[...]
CELL_DATA 2
FIELD FieldData 9
cell_id 1 2 int
0 1 
cell_type_id 1 2 int
3 2 
cell_area 1 2 float
2.997e-10 1.231e-09 
cell_volume 1 2 float
4.795e-16 4.054e-15 
cell_pressure 1 2 float
8.822e+01 1.033e+01 
cell_growth_rate 1 2 float
0.000e+00 0.000e+00 
cell_division_vol 1 2 float
8.000e-01 8.000e-01 
cell_is_static 1 2 int
0 1 
FENE_stiffness 1 2 float
0.000e+00 0.000e+00 
