# vtk DataFile Version 4.2
vtk output
ASCII
DATASET UNSTRUCTURED_GRID
POINTS 33705 float
4.70060E-06 9.52938E-06 7.19300E-07 4.82070E-06 1.00250E-05 6.00330E-07 4.76160E-06 1.05781E-05 6.01760E-07 
4.70040E-06 8.52880E-06 2.42370E-07 4.88590E-06 9.18425E-06 1.96700E-07 4.94160E-06 9.75603E-06 1.81040E-07 
4.92330E-06 1.04744E-05 1.35160E-07 4.84140E-06 1.10318E-05 2.49650E-07 4.61170E-06 1.18152E-05 1.84090E-07 
4.83420E-06 9.00424E-06 -2.76400E-07 4.89670E-06 9.50713E-06 -2.91450E-07 4.91950E-06 1.01424E-05 -3.29640E-07 
4.85650E-06 1.07486E-05 -3.25780E-07 4.71480E-06 1.12291E-05 -5.04000E-07 4.67050E-06 9.53833E-06 -7.65630E-07 
4.63840E-06 1.06553E-05 -7.74000E-07 4.05100E-06 7.74990E-06 8.56370E-07 4.11080E-06 8.98080E-06 1.13750E-06 
4.29420E-06 9.51938E-06 1.08130E-06 4.41960E-06 1.00029E-05 1.02680E-06 4.33840E-06 1.05085E-05 1.04560E-06 
4.07980E-06 1.10349E-05 1.15630E-06 4.42890E-06 8.02900E-06 5.48970E-07 4.48410E-06 8.57580E-06 7.40180E-07 
4.49180E-06 1.14966E-05 7.04780E-07 4.21200E-06 1.20991E-05 7.41330E-07 4.22400E-06 7.45610E-06 -2.84710E-07 
4.49910E-06 8.01650E-06 -3.72880E-07 4.48540E-06 1.20222E-05 -3.32810E-07 4.21480E-06 1.25177E-05 -3.39980E-07 
4.48930E-06 8.66300E-06 -7.69960E-07 4.13100E-06 9.30666E-06 -1.16150E-06 4.46700E-06 1.00656E-05 -9.90760E-07 
4.38180E-06 1.11850E-05 -9.36390E-07 4.33500E-06 1.17263E-05 -8.27450E-07 3.55880E-06 7.44800E-06 1.04290E-06 
3.57880E-06 7.99660E-06 1.17690E-06 3.88900E-06 8.43190E-06 1.16100E-06 3.50220E-06 8.74260E-06 1.24700E-06 
3.65180E-06 9.22808E-06 1.24810E-06 3.73300E-06 9.82899E-06 1.24960E-06 3.51070E-06 1.04721E-05 1.21220E-06 
3.84170E-06 1.15107E-05 1.17350E-06 3.62790E-06 1.20254E-05 1.16490E-06 3.84910E-06 7.23130E-06 6.95410E-07 
3.94300E-06 1.26487E-05 7.02520E-07 3.66820E-06 1.31455E-05 5.57530E-07 3.51890E-06 6.51020E-06 2.10820E-07 
3.96400E-06 7.06420E-06 2.24800E-07 3.99870E-06 1.29027E-05 2.45000E-07 3.74430E-06 1.32755E-05 -2.90770E-08 
3.82750E-06 7.03740E-06 -5.37030E-07 3.91860E-06 1.29476E-05 -4.10980E-07 3.88670E-06 7.44490E-06 -8.53810E-07 
3.97500E-06 8.01830E-06 -1.00050E-06 3.97260E-06 8.52970E-06 -1.14040E-06 3.63860E-06 9.04044E-06 -1.24360E-06 
3.99720E-06 9.88485E-06 -1.19860E-06 3.99010E-06 1.05095E-05 -1.19150E-06 3.98570E-06 1.14084E-05 -1.14570E-06 
3.92530E-06 1.20977E-05 -9.89950E-07 3.82780E-06 1.26336E-05 -8.65030E-07 3.51550E-06 1.31226E-05 -7.55890E-07 
3.05010E-06 8.00350E-06 1.22940E-06 3.22730E-06 9.58812E-06 1.15030E-06 3.04030E-06 1.04943E-05 1.04110E-06 
3.21430E-06 1.10613E-05 1.18000E-06 3.33390E-06 1.15750E-05 1.24030E-06 3.01750E-06 1.20767E-05 1.23260E-06 
3.36910E-06 1.25994E-05 1.12670E-06 3.00610E-06 6.25860E-06 6.06840E-07 3.48480E-06 6.81080E-06 7.23210E-07 
3.30870E-06 1.35177E-05 5.71590E-07 3.09380E-06 1.38320E-05 2.40450E-07 3.49800E-06 6.56130E-06 -4.55430E-07 
3.42100E-06 1.35396E-05 -3.48390E-07 3.40940E-06 7.04650E-06 -9.51170E-07 3.49880E-06 7.59350E-06 -1.13580E-06 
3.47450E-06 8.56620E-06 -1.24810E-06 3.49270E-06 9.81451E-06 -1.20210E-06 3.47950E-06 1.03360E-05 -1.20310E-06 
3.48930E-06 1.18811E-05 -1.20300E-06 3.41040E-06 1.25424E-05 -1.12990E-06 2.86580E-06 6.66680E-06 1.03100E-06 
2.98710E-06 7.18060E-06 1.17670E-06 2.95080E-06 8.75290E-06 1.11050E-06 2.56820E-06 9.06013E-06 8.83820E-07 
2.85180E-06 1.00556E-05 8.83820E-07 2.81100E-06 1.16161E-05 1.14650E-06 2.50280E-06 1.20262E-05 1.12910E-06 
2.83590E-06 1.30084E-05 1.17130E-06 2.74390E-06 1.36563E-05 9.10900E-07 2.73030E-06 1.40187E-05 5.33420E-07 
2.97680E-06 6.02690E-06 -1.05010E-07 2.67890E-06 1.42160E-05 -2.74250E-09 2.55340E-06 5.79380E-06 -2.91800E-07 
2.88030E-06 1.39332E-05 -4.91350E-07 2.85290E-06 6.33850E-06 -8.46430E-07 2.90820E-06 7.00710E-06 -1.16470E-06 
2.98140E-06 7.50460E-06 -1.21830E-06 2.94100E-06 8.00980E-06 -1.21160E-06 2.98560E-06 8.65400E-06 -1.15690E-06 
2.97770E-06 9.44983E-06 -9.92060E-07 2.99130E-06 1.00524E-05 -9.71020E-07 2.89550E-06 1.05771E-05 -9.43850E-07 
2.95690E-06 1.13217E-05 -1.13830E-06 2.69910E-06 1.17760E-05 -1.13160E-06 2.98960E-06 1.22316E-05 -1.24810E-06 
2.98110E-06 1.29980E-05 -1.15430E-06 2.89530E-06 1.35990E-05 -8.68030E-07 2.36240E-06 5.99720E-06 8.29020E-07 
2.19570E-06 7.33920E-06 1.19300E-06 2.42440E-06 7.84800E-06 1.14440E-06 2.48170E-06 8.52360E-06 9.03570E-07 
2.46830E-06 9.57505E-06 8.83820E-07 2.49930E-06 1.04106E-05 8.83820E-07 2.48310E-06 1.11522E-05 8.83820E-07 
2.46540E-06 1.26216E-05 1.22180E-06 2.14630E-06 1.30476E-05 1.24780E-06 2.07340E-06 1.35980E-05 1.16700E-06 
2.32920E-06 1.40020E-05 8.66100E-07 2.43650E-06 5.71000E-06 2.01570E-07 2.46910E-06 1.42230E-05 -4.65000E-07 
2.46580E-06 6.00410E-06 -7.63930E-07 2.48320E-06 6.57070E-06 -1.14550E-06 2.26880E-06 7.05150E-06 -1.24660E-06 
2.41300E-06 7.52990E-06 -1.19150E-06 2.45400E-06 8.01760E-06 -1.08810E-06 2.44530E-06 8.52750E-06 -8.83820E-07 
2.46560E-06 9.05002E-06 -8.83820E-07 2.43040E-06 9.65065E-06 -8.83820E-07 2.36700E-06 1.02442E-05 -8.83820E-07 
2.43620E-06 1.10354E-05 -8.83820E-07 2.47800E-06 1.23551E-05 -1.18530E-06 2.46430E-06 1.29853E-05 -1.22170E-06 
2.41290E-06 1.34802E-05 -1.14280E-06 2.49900E-06 1.39102E-05 -8.69370E-07 1.93360E-06 6.40220E-06 1.17890E-06 
1.65570E-06 7.22500E-06 1.13790E-06 1.96650E-06 8.01060E-06 8.83820E-07 1.94060E-06 8.77090E-06 8.83820E-07 
1.96150E-06 9.56485E-06 8.83820E-07 1.99930E-06 1.01263E-05 8.83820E-07 1.97580E-06 1.08202E-05 8.83820E-07 
1.94010E-06 1.14460E-05 8.83820E-07 1.78080E-06 1.20424E-05 8.83820E-07 1.85380E-06 1.26503E-05 1.13620E-06 
1.58280E-06 1.30892E-05 1.19730E-06 1.99250E-06 5.61240E-06 5.85720E-07 1.93930E-06 1.44100E-05 5.96360E-07 
1.97880E-06 5.51080E-06 -4.20490E-07 1.96000E-06 1.45251E-05 -3.11640E-07 1.92600E-06 6.01410E-06 -1.00920E-06 
1.98820E-06 6.50180E-06 -1.19120E-06 1.92280E-06 7.51200E-06 -1.07710E-06 1.98920E-06 8.00590E-06 -8.83820E-07 
1.98300E-06 8.78960E-06 -8.83820E-07 1.88480E-06 9.58811E-06 -8.83820E-07 1.96230E-06 1.05783E-05 -8.83820E-07 
1.94310E-06 1.11704E-05 -8.83820E-07 1.93320E-06 1.18113E-05 -8.83820E-07 1.99470E-06 1.24577E-05 -1.09530E-06 
1.97720E-06 1.31847E-05 -1.24900E-06 1.99800E-06 1.39430E-05 -1.01440E-06 1.10620E-06 5.94070E-06 1.15590E-06 
1.41830E-06 6.57010E-06 1.24230E-06 1.45170E-06 7.62940E-06 8.83820E-07 1.49250E-06 8.18340E-06 8.83820E-07 
1.49420E-06 9.10089E-06 8.83820E-07 1.44290E-06 9.66814E-06 8.83820E-07 1.48390E-06 1.05023E-05 8.83820E-07 
1.46290E-06 1.10875E-05 8.83820E-07 1.27550E-06 1.17140E-05 8.83820E-07 1.45400E-06 1.24501E-05 8.83820E-07 
1.45060E-06 1.35781E-05 1.22730E-06 1.43200E-06 1.40861E-05 1.07460E-06 1.49250E-06 5.50360E-06 7.00040E-07 
1.46070E-06 1.44727E-05 7.41070E-07 1.43960E-06 5.27670E-06 2.08390E-07 1.46700E-06 1.47031E-05 2.35390E-07 
1.25260E-06 5.50370E-06 -8.07060E-07 1.41420E-06 6.01640E-06 -1.14600E-06 1.47460E-06 6.50830E-06 -1.24140E-06 
1.46830E-06 7.28060E-06 -1.04500E-06 1.49480E-06 8.08920E-06 -8.83820E-07 1.45280E-06 8.66760E-06 -8.83820E-07 
1.46780E-06 9.21604E-06 -8.83820E-07 1.49930E-06 9.90935E-06 -8.83820E-07 1.39710E-06 1.05239E-05 -8.83820E-07 
1.37630E-06 1.11957E-05 -8.83820E-07 1.35930E-06 1.19062E-05 -8.83820E-07 1.49370E-06 1.24530E-05 -8.91930E-07 
1.43270E-06 1.29503E-05 -1.15880E-06 1.49150E-06 1.34449E-05 -1.24820E-06 1.49430E-06 1.39545E-05 -1.14750E-06 
1.47890E-06 1.43800E-05 -8.67090E-07 9.53110E-07 5.46920E-06 8.85760E-07 9.56460E-07 6.77860E-06 1.17510E-06 
9.53950E-07 7.50180E-06 8.83820E-07 9.78360E-07 8.13530E-06 8.83820E-07 9.75040E-07 8.86810E-06 8.83820E-07 
8.89470E-07 9.50645E-06 8.83820E-07 9.85690E-07 1.00345E-05 8.83820E-07 9.77950E-07 1.05807E-05 8.83820E-07 
8.45030E-07 1.11304E-05 8.83820E-07 9.98060E-07 1.21325E-05 8.83820E-07 9.46410E-07 1.29074E-05 1.02210E-06 
5.17980E-07 1.31872E-05 1.13000E-06 8.51220E-07 1.36617E-05 1.24530E-06 9.15300E-07 1.41482E-05 1.13320E-06 
9.88340E-07 1.46391E-05 7.02870E-07 9.44270E-07 5.13950E-06 2.02530E-07 9.59880E-07 1.48668E-05 1.69960E-07 
9.57950E-07 5.17100E-06 -3.53390E-07 9.97200E-07 1.48162E-05 -3.61730E-07 8.83850E-07 7.02310E-06 -1.05210E-06 
9.03230E-07 7.52580E-06 -8.83820E-07 9.95110E-07 8.05120E-06 -8.83820E-07 9.31280E-07 8.61020E-06 -8.83820E-07 
9.95840E-07 9.56154E-06 -8.83820E-07 8.22020E-07 1.02653E-05 -8.83820E-07 9.44760E-07 1.08529E-05 -8.83820E-07 
9.77120E-07 1.15259E-05 -8.83820E-07 9.84500E-07 1.23717E-05 -8.83820E-07 5.34600E-07 1.32168E-05 -1.15090E-06 
9.25830E-07 1.36790E-05 -1.23770E-06 5.04640E-07 1.42616E-05 -1.10160E-06 9.55500E-07 1.45713E-05 -8.14680E-07 
4.83180E-07 5.74620E-06 1.10380E-06 4.95750E-07 6.49200E-06 1.21210E-06 1.13200E-07 6.89500E-06 1.05130E-06 
4.71410E-07 7.24550E-06 8.83820E-07 4.88380E-07 8.02620E-06 8.83820E-07 4.69060E-07 8.76090E-06 8.83820E-07 
3.34410E-07 9.39511E-06 8.83820E-07 4.83850E-07 1.00912E-05 8.83820E-07 4.30810E-07 1.06500E-05 8.83820E-07 
4.86800E-07 1.15155E-05 8.83820E-07 4.96090E-07 1.20293E-05 8.83820E-07 4.77010E-07 1.27375E-05 8.83820E-07 
4.81740E-08 1.36294E-05 1.22680E-06 4.80040E-07 5.31780E-06 7.36020E-07 4.90720E-07 1.46961E-05 7.23280E-07 
1.96870E-07 5.06060E-06 2.00420E-07 2.04460E-07 1.49460E-05 1.77240E-07 3.98250E-07 5.09430E-06 -2.63420E-07 
4.75160E-07 1.48858E-05 -3.54550E-07 4.64670E-07 5.40150E-06 -8.63760E-07 3.97790E-07 6.02220E-06 -1.19630E-06 
3.84310E-07 6.52390E-06 -1.20340E-06 2.62810E-07 7.50850E-06 -8.83820E-07 4.95320E-07 8.00550E-06 -8.83820E-07 
3.93310E-07 8.75330E-06 -8.83820E-07 4.65300E-07 9.38662E-06 -8.83820E-07 4.67470E-07 9.90487E-06 -8.83820E-07 
4.48130E-07 1.06355E-05 -8.83820E-07 4.55100E-07 1.12515E-05 -8.83820E-07 4.84200E-07 1.17607E-05 -8.83820E-07 
4.58310E-07 1.23200E-05 -8.83820E-07 3.06730E-07 1.46410E-05 -8.30990E-07 -1.35210E-08 5.95970E-06 1.19190E-06 
-1.14500E-07 6.46490E-06 1.20920E-06 -4.71520E-07 6.91700E-06 1.06310E-06 -6.99120E-09 7.61410E-06 8.83820E-07 
-1.22860E-07 8.14560E-06 8.83820E-07 -3.39970E-08 9.05219E-06 8.83820E-07 -2.43040E-08 1.00181E-05 8.83820E-07 
[...]
CELL_DATA 5
FIELD FieldData 2
Cell_id 1 1 int
1 2 3 4 5 6 7
8 9 10 11 12 13 14
15 16 17 18 19 20 21 
22 23 24 25 26 27 28
29 30 31 32 33 34 35
36 37 38 39 40 41 42 
43 44 45 46 47 48 49
50 51 52 53 54 55 56
57 58 59 60 61 62 63
METADATA
INFORMATION 0

Cell_type_id 1 1 int
0 0 0 0 0 0 0
0 0 0 0 0 0 0
0 0 0 0 0 0 0
0 0 0 0 0 0 0
0 0 0 0 0 0 0
0 0 0 0 0 0 0
0 0 0 0 0 0 0
0 0 0 0 0 0 0
0 0 0 0 0 0 0
METADATA
INFORMATION 0

