# vtk DataFile Version 4.2
vtk output
ASCII
DATASET UNSTRUCTURED_GRID
POINTS 535 float
4.70060E-06 -4.70620E-07 7.19300E-07 4.82070E-06 2.49740E-08 6.00330E-07 4.76160E-06 5.78080E-07 6.01760E-07 
4.70040E-06 -1.47120E-06 2.42370E-07 4.88590E-06 -8.15750E-07 1.96700E-07 4.94160E-06 -2.43970E-07 1.81040E-07 
4.92330E-06 4.74390E-07 1.35160E-07 4.84140E-06 1.03180E-06 2.49650E-07 4.61170E-06 1.81520E-06 1.84090E-07 
4.83420E-06 -9.95760E-07 -2.76400E-07 4.89670E-06 -4.92870E-07 -2.91450E-07 4.91950E-06 1.42410E-07 -3.29640E-07 
4.85650E-06 7.48620E-07 -3.25780E-07 4.71480E-06 1.22910E-06 -5.04000E-07 4.67050E-06 -4.61670E-07 -7.65630E-07 
4.63840E-06 6.55260E-07 -7.74000E-07 4.05100E-06 -2.25010E-06 8.56370E-07 4.11080E-06 -1.01920E-06 1.13750E-06 
4.29420E-06 -4.80620E-07 1.08130E-06 4.41960E-06 2.90800E-09 1.02680E-06 4.33840E-06 5.08530E-07 1.04560E-06 
4.07980E-06 1.03490E-06 1.15630E-06 4.42890E-06 -1.97100E-06 5.48970E-07 4.48410E-06 -1.42420E-06 7.40180E-07 
4.49180E-06 1.49660E-06 7.04780E-07 4.21200E-06 2.09910E-06 7.41330E-07 4.22400E-06 -2.54390E-06 -2.84710E-07 
4.49910E-06 -1.98350E-06 -3.72880E-07 4.48540E-06 2.02220E-06 -3.32810E-07 4.21480E-06 2.51770E-06 -3.39980E-07 
4.48930E-06 -1.33700E-06 -7.69960E-07 4.13100E-06 -6.93340E-07 -1.16150E-06 4.46700E-06 6.56220E-08 -9.90760E-07 
4.38180E-06 1.18500E-06 -9.36390E-07 4.33500E-06 1.72630E-06 -8.27450E-07 3.55880E-06 -2.55200E-06 1.04290E-06 
3.57880E-06 -2.00340E-06 1.17690E-06 3.88900E-06 -1.56810E-06 1.16100E-06 3.50220E-06 -1.25740E-06 1.24700E-06 
3.65180E-06 -7.71920E-07 1.24810E-06 3.73300E-06 -1.71010E-07 1.24960E-06 3.51070E-06 4.72100E-07 1.21220E-06 
3.84170E-06 1.51070E-06 1.17350E-06 3.62790E-06 2.02540E-06 1.16490E-06 3.84910E-06 -2.76870E-06 6.95410E-07 
3.94300E-06 2.64870E-06 7.02520E-07 3.66820E-06 3.14550E-06 5.57530E-07 3.51890E-06 -3.48980E-06 2.10820E-07 
3.96400E-06 -2.93580E-06 2.24800E-07 3.99870E-06 2.90270E-06 2.45000E-07 3.74430E-06 3.27550E-06 -2.90770E-08 
3.82750E-06 -2.96260E-06 -5.37030E-07 3.91860E-06 2.94760E-06 -4.10980E-07 3.88670E-06 -2.55510E-06 -8.53810E-07 
3.97500E-06 -1.98170E-06 -1.00050E-06 3.97260E-06 -1.47030E-06 -1.14040E-06 3.63860E-06 -9.59560E-07 -1.24360E-06 
3.99720E-06 -1.15150E-07 -1.19860E-06 3.99010E-06 5.09540E-07 -1.19150E-06 3.98570E-06 1.40840E-06 -1.14570E-06 
3.92530E-06 2.09770E-06 -9.89950E-07 3.82780E-06 2.63360E-06 -8.65030E-07 3.51550E-06 3.12260E-06 -7.55890E-07 
3.05010E-06 -1.99650E-06 1.22940E-06 3.22730E-06 -4.11880E-07 1.15030E-06 3.04030E-06 4.94290E-07 1.04110E-06 
3.21430E-06 1.06130E-06 1.18000E-06 3.33390E-06 1.57500E-06 1.24030E-06 3.01750E-06 2.07670E-06 1.23260E-06 
3.36910E-06 2.59940E-06 1.12670E-06 3.00610E-06 -3.74140E-06 6.06840E-07 3.48480E-06 -3.18920E-06 7.23210E-07 
3.30870E-06 3.51770E-06 5.71590E-07 3.09380E-06 3.83200E-06 2.40450E-07 3.49800E-06 -3.43870E-06 -4.55430E-07 
3.42100E-06 3.53960E-06 -3.48390E-07 3.40940E-06 -2.95350E-06 -9.51170E-07 3.49880E-06 -2.40650E-06 -1.13580E-06 
3.47450E-06 -1.43380E-06 -1.24810E-06 3.49270E-06 -1.85490E-07 -1.20210E-06 3.47950E-06 3.36010E-07 -1.20310E-06 
3.48930E-06 1.88110E-06 -1.20300E-06 3.41040E-06 2.54240E-06 -1.12990E-06 2.86580E-06 -3.33320E-06 1.03100E-06 
2.98710E-06 -2.81940E-06 1.17670E-06 2.95080E-06 -1.24710E-06 1.11050E-06 2.56820E-06 -9.39870E-07 8.83820E-07 
2.85180E-06 5.56240E-08 8.83820E-07 2.81100E-06 1.61610E-06 1.14650E-06 2.50280E-06 2.02620E-06 1.12910E-06 
2.83590E-06 3.00840E-06 1.17130E-06 2.74390E-06 3.65630E-06 9.10900E-07 2.73030E-06 4.01870E-06 5.33420E-07 
2.97680E-06 -3.97310E-06 -1.05010E-07 2.67890E-06 4.21600E-06 -2.74250E-09 2.55340E-06 -4.20620E-06 -2.91800E-07 
2.88030E-06 3.93320E-06 -4.91350E-07 2.85290E-06 -3.66150E-06 -8.46430E-07 2.90820E-06 -2.99290E-06 -1.16470E-06 
2.98140E-06 -2.49540E-06 -1.21830E-06 2.94100E-06 -1.99020E-06 -1.21160E-06 2.98560E-06 -1.34600E-06 -1.15690E-06 
2.97770E-06 -5.50170E-07 -9.92060E-07 2.99130E-06 5.23640E-08 -9.71020E-07 2.89550E-06 5.77070E-07 -9.43850E-07 
2.95690E-06 1.32170E-06 -1.13830E-06 2.69910E-06 1.77600E-06 -1.13160E-06 2.98960E-06 2.23160E-06 -1.24810E-06 
2.98110E-06 2.99800E-06 -1.15430E-06 2.89530E-06 3.59900E-06 -8.68030E-07 2.36240E-06 -4.00280E-06 8.29020E-07 
2.19570E-06 -2.66080E-06 1.19300E-06 2.42440E-06 -2.15200E-06 1.14440E-06 2.48170E-06 -1.47640E-06 9.03570E-07 
2.46830E-06 -4.24950E-07 8.83820E-07 2.49930E-06 4.10550E-07 8.83820E-07 2.48310E-06 1.15220E-06 8.83820E-07 
2.46540E-06 2.62160E-06 1.22180E-06 2.14630E-06 3.04760E-06 1.24780E-06 2.07340E-06 3.59800E-06 1.16700E-06 
2.32920E-06 4.00200E-06 8.66100E-07 2.43650E-06 -4.29000E-06 2.01570E-07 2.46910E-06 4.22300E-06 -4.65000E-07 
2.46580E-06 -3.99590E-06 -7.63930E-07 2.48320E-06 -3.42930E-06 -1.14550E-06 2.26880E-06 -2.94850E-06 -1.24660E-06 
2.41300E-06 -2.47010E-06 -1.19150E-06 2.45400E-06 -1.98240E-06 -1.08810E-06 2.44530E-06 -1.47250E-06 -8.83820E-07 
2.46560E-06 -9.49980E-07 -8.83820E-07 2.43040E-06 -3.49350E-07 -8.83820E-07 2.36700E-06 2.44240E-07 -8.83820E-07 
2.43620E-06 1.03540E-06 -8.83820E-07 2.47800E-06 2.35510E-06 -1.18530E-06 2.46430E-06 2.98530E-06 -1.22170E-06 
2.41290E-06 3.48020E-06 -1.14280E-06 2.49900E-06 3.91020E-06 -8.69370E-07 1.93360E-06 -3.59780E-06 1.17890E-06 
1.65570E-06 -2.77500E-06 1.13790E-06 1.96650E-06 -1.98940E-06 8.83820E-07 1.94060E-06 -1.22910E-06 8.83820E-07 
1.96150E-06 -4.35150E-07 8.83820E-07 1.99930E-06 1.26290E-07 8.83820E-07 1.97580E-06 8.20170E-07 8.83820E-07 
1.94010E-06 1.44600E-06 8.83820E-07 1.78080E-06 2.04240E-06 8.83820E-07 1.85380E-06 2.65030E-06 1.13620E-06 
1.58280E-06 3.08920E-06 1.19730E-06 1.99250E-06 -4.38760E-06 5.85720E-07 1.93930E-06 4.41000E-06 5.96360E-07 
1.97880E-06 -4.48920E-06 -4.20490E-07 1.96000E-06 4.52510E-06 -3.11640E-07 1.92600E-06 -3.98590E-06 -1.00920E-06 
1.98820E-06 -3.49820E-06 -1.19120E-06 1.92280E-06 -2.48800E-06 -1.07710E-06 1.98920E-06 -1.99410E-06 -8.83820E-07 
1.98300E-06 -1.21040E-06 -8.83820E-07 1.88480E-06 -4.11890E-07 -8.83820E-07 1.96230E-06 5.78300E-07 -8.83820E-07 
1.94310E-06 1.17040E-06 -8.83820E-07 1.93320E-06 1.81130E-06 -8.83820E-07 1.99470E-06 2.45770E-06 -1.09530E-06 
1.97720E-06 3.18470E-06 -1.24900E-06 1.99800E-06 3.94300E-06 -1.01440E-06 1.10620E-06 -4.05930E-06 1.15590E-06 
1.41830E-06 -3.42990E-06 1.24230E-06 1.45170E-06 -2.37060E-06 8.83820E-07 1.49250E-06 -1.81660E-06 8.83820E-07 
1.49420E-06 -8.99110E-07 8.83820E-07 1.44290E-06 -3.31860E-07 8.83820E-07 1.48390E-06 5.02290E-07 8.83820E-07 
1.46290E-06 1.08750E-06 8.83820E-07 1.27550E-06 1.71400E-06 8.83820E-07 1.45400E-06 2.45010E-06 8.83820E-07 
1.45060E-06 3.57810E-06 1.22730E-06 1.43200E-06 4.08610E-06 1.07460E-06 1.49250E-06 -4.49640E-06 7.00040E-07 
1.46070E-06 4.47270E-06 7.41070E-07 1.43960E-06 -4.72330E-06 2.08390E-07 1.46700E-06 4.70310E-06 2.35390E-07 
1.25260E-06 -4.49630E-06 -8.07060E-07 1.41420E-06 -3.98360E-06 -1.14600E-06 1.47460E-06 -3.49170E-06 -1.24140E-06 
1.46830E-06 -2.71940E-06 -1.04500E-06 1.49480E-06 -1.91080E-06 -8.83820E-07 1.45280E-06 -1.33240E-06 -8.83820E-07 
1.46780E-06 -7.83960E-07 -8.83820E-07 1.49930E-06 -9.06530E-08 -8.83820E-07 1.39710E-06 5.23930E-07 -8.83820E-07 
1.37630E-06 1.19570E-06 -8.83820E-07 1.35930E-06 1.90620E-06 -8.83820E-07 1.49370E-06 2.45300E-06 -8.91930E-07 
1.43270E-06 2.95030E-06 -1.15880E-06 1.49150E-06 3.44490E-06 -1.24820E-06 1.49430E-06 3.95450E-06 -1.14750E-06 
1.47890E-06 4.38000E-06 -8.67090E-07 9.53110E-07 -4.53080E-06 8.85760E-07 9.56460E-07 -3.22140E-06 1.17510E-06 
9.53950E-07 -2.49820E-06 8.83820E-07 9.78360E-07 -1.86470E-06 8.83820E-07 9.75040E-07 -1.13190E-06 8.83820E-07 
8.89470E-07 -4.93550E-07 8.83820E-07 9.85690E-07 3.45400E-08 8.83820E-07 9.77950E-07 5.80740E-07 8.83820E-07 
8.45030E-07 1.13040E-06 8.83820E-07 9.98060E-07 2.13250E-06 8.83820E-07 9.46410E-07 2.90740E-06 1.02210E-06 
5.17980E-07 3.18720E-06 1.13000E-06 8.51220E-07 3.66170E-06 1.24530E-06 9.15300E-07 4.14820E-06 1.13320E-06 
9.88340E-07 4.63910E-06 7.02870E-07 9.44270E-07 -4.86050E-06 2.02530E-07 9.59880E-07 4.86680E-06 1.69960E-07 
9.57950E-07 -4.82900E-06 -3.53390E-07 9.97200E-07 4.81620E-06 -3.61730E-07 8.83850E-07 -2.97690E-06 -1.05210E-06 
9.03230E-07 -2.47420E-06 -8.83820E-07 9.95110E-07 -1.94880E-06 -8.83820E-07 9.31280E-07 -1.38980E-06 -8.83820E-07 
9.95840E-07 -4.38460E-07 -8.83820E-07 8.22020E-07 2.65300E-07 -8.83820E-07 9.44760E-07 8.52940E-07 -8.83820E-07 
9.77120E-07 1.52590E-06 -8.83820E-07 9.84500E-07 2.37170E-06 -8.83820E-07 5.34600E-07 3.21680E-06 -1.15090E-06 
9.25830E-07 3.67900E-06 -1.23770E-06 5.04640E-07 4.26160E-06 -1.10160E-06 9.55500E-07 4.57130E-06 -8.14680E-07 
4.83180E-07 -4.25380E-06 1.10380E-06 4.95750E-07 -3.50800E-06 1.21210E-06 1.13200E-07 -3.10500E-06 1.05130E-06 
4.71410E-07 -2.75450E-06 8.83820E-07 4.88380E-07 -1.97380E-06 8.83820E-07 4.69060E-07 -1.23910E-06 8.83820E-07 
3.34410E-07 -6.04890E-07 8.83820E-07 4.83850E-07 9.11820E-08 8.83820E-07 4.30810E-07 6.49990E-07 8.83820E-07 
4.86800E-07 1.51550E-06 8.83820E-07 4.96090E-07 2.02930E-06 8.83820E-07 4.77010E-07 2.73750E-06 8.83820E-07 
4.81740E-08 3.62940E-06 1.22680E-06 4.80040E-07 -4.68220E-06 7.36020E-07 4.90720E-07 4.69610E-06 7.23280E-07 
1.96870E-07 -4.93940E-06 2.00420E-07 2.04460E-07 4.94600E-06 1.77240E-07 3.98250E-07 -4.90570E-06 -2.63420E-07 
4.75160E-07 4.88580E-06 -3.54550E-07 4.64670E-07 -4.59850E-06 -8.63760E-07 3.97790E-07 -3.97780E-06 -1.19630E-06 
3.84310E-07 -3.47610E-06 -1.20340E-06 2.62810E-07 -2.49150E-06 -8.83820E-07 4.95320E-07 -1.99450E-06 -8.83820E-07 
3.93310E-07 -1.24670E-06 -8.83820E-07 4.65300E-07 -6.13380E-07 -8.83820E-07 4.67470E-07 -9.51280E-08 -8.83820E-07 
4.48130E-07 6.35500E-07 -8.83820E-07 4.55100E-07 1.25150E-06 -8.83820E-07 4.84200E-07 1.76070E-06 -8.83820E-07 
4.58310E-07 2.32000E-06 -8.83820E-07 3.06730E-07 4.64100E-06 -8.30990E-07 -1.35210E-08 -4.04030E-06 1.19190E-06 
-1.14500E-07 -3.53510E-06 1.20920E-06 -4.71520E-07 -3.08300E-06 1.06310E-06 -6.99120E-09 -2.38590E-06 8.83820E-07 
[...]
CELL_DATA 1
FIELD FieldData 2
Cell_id 1 1 int
1
METADATA
INFORMATION 0

Cell_type_id 1 1 int
5
METADATA
INFORMATION 0

