<VTKFile type="UnstructuredGrid" version="1.0" byte_order="LittleEndian" header_type="UInt64">
  <UnstructuredGrid>
    <FieldData>
      <DataArray type="Float64" Name="TimeValue" NumberOfTuples="1" format="ascii" RangeMin="0.7491" RangeMax="0.7491">
        0.7491
      </DataArray>
    </FieldData>
    <Piece NumberOfPoints="535" NumberOfCells="1">
      <PointData>
        <DataArray type="Int64" IdType="1" Name="vtkOriginalPointIds" format="ascii" RangeMin="3210" RangeMax="3744">
          3210 3211 3212 3213 3214 3215
          3216 3217 3218 3219 3220 3221
          3222 3223 3224 3225 3226 3227
          3228 3229 3230 3231 3232 3233
          3234 3235 3236 3237 3238 3239
          3240 3241 3242 3243 3244 3245
          3246 3247 3248 3249 3250 3251
          3252 3253 3254 3255 3256 3257
          3258 3259 3260 3261 3262 3263
          3264 3265 3266 3267 3268 3269
          3270 3271 3272 3273 3274 3275
          3276 3277 3278 3279 3280 3281
          3282 3283 3284 3285 3286 3287
          3288 3289 3290 3291 3292 3293
          3294 3295 3296 3297 3298 3299
          3300 3301 3302 3303 3304 3305
          3306 3307 3308 3309 3310 3311
          3312 3313 3314 3315 3316 3317
          3318 3319 3320 3321 3322 3323
          3324 3325 3326 3327 3328 3329
          3330 3331 3332 3333 3334 3335
          3336 3337 3338 3339 3340 3341
          3342 3343 3344 3345 3346 3347
          3348 3349 3350 3351 3352 3353
          3354 3355 3356 3357 3358 3359
          3360 3361 3362 3363 3364 3365
          3366 3367 3368 3369 3370 3371
          3372 3373 3374 3375 3376 3377
          3378 3379 3380 3381 3382 3383
          3384 3385 3386 3387 3388 3389
          3390 3391 3392 3393 3394 3395
          3396 3397 3398 3399 3400 3401
          3402 3403 3404 3405 3406 3407
          3408 3409 3410 3411 3412 3413
          3414 3415 3416 3417 3418 3419
          3420 3421 3422 3423 3424 3425
          3426 3427 3428 3429 3430 3431
          3432 3433 3434 3435 3436 3437
          3438 3439 3440 3441 3442 3443
          3444 3445 3446 3447 3448 3449
          3450 3451 3452 3453 3454 3455
          3456 3457 3458 3459 3460 3461
          3462 3463 3464 3465 3466 3467
          3468 3469 3470 3471 3472 3473
          3474 3475 3476 3477 3478 3479
          3480 3481 3482 3483 3484 3485
          3486 3487 3488 3489 3490 3491
          3492 3493 3494 3495 3496 3497
          3498 3499 3500 3501 3502 3503
          3504 3505 3506 3507 3508 3509
          3510 3511 3512 3513 3514 3515
          3516 3517 3518 3519 3520 3521
          3522 3523 3524 3525 3526 3527
          3528 3529 3530 3531 3532 3533
          3534 3535 3536 3537 3538 3539
          3540 3541 3542 3543 3544 3545
          3546 3547 3548 3549 3550 3551
          3552 3553 3554 3555 3556 3557
          3558 3559 3560 3561 3562 3563
          3564 3565 3566 3567 3568 3569
          3570 3571 3572 3573 3574 3575
          3576 3577 3578 3579 3580 3581
          3582 3583 3584 3585 3586 3587
          3588 3589 3590 3591 3592 3593
          3594 3595 3596 3597 3598 3599
          3600 3601 3602 3603 3604 3605
          3606 3607 3608 3609 3610 3611
          3612 3613 3614 3615 3616 3617
          3618 3619 3620 3621 3622 3623
          3624 3625 3626 3627 3628 3629
          3630 3631 3632 3633 3634 3635
          3636 3637 3638 3639 3640 3641
          3642 3643 3644 3645 3646 3647
          3648 3649 3650 3651 3652 3653
          3654 3655 3656 3657 3658 3659
          3660 3661 3662 3663 3664 3665
          3666 3667 3668 3669 3670 3671
          3672 3673 3674 3675 3676 3677
          3678 3679 3680 3681 3682 3683
          3684 3685 3686 3687 3688 3689
          3690 3691 3692 3693 3694 3695
          3696 3697 3698 3699 3700 3701
          3702 3703 3704 3705 3706 3707
          3708 3709 3710 3711 3712 3713
          3714 3715 3716 3717 3718 3719
          3720 3721 3722 3723 3724 3725
          3726 3727 3728 3729 3730 3731
          3732 3733 3734 3735 3736 3737
          3738 3739 3740 3741 3742 3743
          3744
        </DataArray>
      </PointData>
      <CellData>
        <DataArray type="Float32" Name="cell_area" format="ascii" RangeMin="1.9849999421950315e-10" RangeMax="1.9849999421950315e-10">
          1.985e-10
        </DataArray>
        <DataArray type="Float32" Name="cell_division_vol" format="ascii" RangeMin="1.8999999857164144e-16" RangeMax="1.8999999857164144e-16">
          1.9e-16
        </DataArray>
        <DataArray type="Float32" Name="cell_growth_rate" format="ascii" RangeMin="0" RangeMax="0">
          0
        </DataArray>
        <DataArray type="Int32" Name="cell_id" format="ascii" RangeMin="0" RangeMax="0">
          0
        </DataArray>
        <DataArray type="Int32" Name="cell_is_static" format="ascii" RangeMin="0" RangeMax="0">
          0
        </DataArray>
        <DataArray type="Float32" Name="cell_pressure" format="ascii" RangeMin="0" RangeMax="0">
          0
        </DataArray>
        <DataArray type="Int32" Name="cell_type_id" format="ascii" RangeMin="0" RangeMax="0">
          0
        </DataArray>
        <DataArray type="Float32" Name="cell_volume" format="ascii" RangeMin="1.4750000132914871e-16" RangeMax="1.4750000132914871e-16">
          1.475e-16
        </DataArray>
        <DataArray type="Float32" Name="target_volume" format="ascii" RangeMin="1.4750000132914871e-16" RangeMax="1.4750000132914871e-16">
          1.475e-16
        </DataArray>
        <DataArray type="Int64" IdType="1" Name="vtkOriginalCellIds" format="ascii" RangeMin="6" RangeMax="6">
          6
        </DataArray>
      </CellData>
      <Points>
        <DataArray type="Float32" Name="Points" NumberOfComponents="3" format="ascii" RangeMin="8.843395626406961e-7" RangeMax="0.000004995114493437537">
          0.0000047006 -4.7062e-7 7.193e-7 0.0000048207 2.4974e-8 6.0033e-7
          0.0000047616 5.7808e-7 6.0176e-7 0.0000047004 -0.0000014712 2.4237e-7
          0.0000048859 -8.1575e-7 1.967e-7 0.0000049416 -2.4397e-7 1.8104e-7
          0.0000049233 4.7439e-7 1.3516e-7 0.0000048414 0.0000010318 2.4965e-7
          0.0000046117 0.0000018152 1.8409e-7 0.0000048342 -9.9576e-7 -2.764e-7
          0.0000048967 -4.9287e-7 -2.9145e-7 0.0000049195 1.4241e-7 -3.2964e-7
          0.0000048565 7.4862e-7 -3.2578e-7 0.0000047148 0.0000012291 -5.04e-7
          0.0000046705 -4.6167e-7 -7.6563e-7 0.0000046384 6.5526e-7 -7.74e-7
          0.000004051 -0.0000022501 8.5637e-7 0.0000041108 -0.0000010192 0.0000011375
          0.0000042942 -4.8062e-7 0.0000010813 0.0000044196 2.908e-9 0.0000010268
          0.0000043384 5.0853e-7 0.0000010456 0.0000040798 0.0000010349 0.0000011563
          0.0000044289 -0.000001971 5.4897e-7 0.0000044841 -0.0000014242 7.4018e-7
          0.0000044918 0.0000014966 7.0478e-7 0.000004212 0.0000020991 7.4133e-7
          0.000004224 -0.0000025439 -2.8471e-7 0.0000044991 -0.0000019835 -3.7288e-7
          0.0000044854 0.0000020222 -3.3281e-7 0.0000042148 0.0000025177 -3.3998e-7
          0.0000044893 -0.000001337 -7.6996e-7 0.000004131 -6.9334e-7 -0.0000011615
          0.000004467 6.5622e-8 -9.9076e-7 0.0000043818 0.000001185 -9.3639e-7
          0.000004335 0.0000017263 -8.2745e-7 0.0000035588 -0.000002552 0.0000010429
          0.0000035788 -0.0000020034 0.0000011769 0.000003889 -0.0000015681 0.000001161
          0.0000035022 -0.0000012574 0.000001247 0.0000036518 -7.7192e-7 0.0000012481
          0.000003733 -1.7101e-7 0.0000012496 0.0000035107 4.721e-7 0.0000012122
          0.0000038417 0.0000015107 0.0000011735 0.0000036279 0.0000020254 0.0000011649
          0.0000038491 -0.0000027687 6.9541e-7 0.000003943 0.0000026487 7.0252e-7
          0.0000036682 0.0000031455 5.5753e-7 0.0000035189 -0.0000034898 2.1082e-7
          0.000003964 -0.0000029358 2.248e-7 0.0000039987 0.0000029027 2.45e-7
          0.0000037443 0.0000032755 -2.9077e-8 0.0000038275 -0.0000029626 -5.3703e-7
          0.0000039186 0.0000029476 -4.1098e-7 0.0000038867 -0.0000025551 -8.5381e-7
          0.000003975 -0.0000019817 -0.0000010005 0.0000039726 -0.0000014703 -0.0000011404
          0.0000036386 -9.5956e-7 -0.0000012436 0.0000039972 -1.1515e-7 -0.0000011986
          0.0000039901 5.0954e-7 -0.0000011915 0.0000039857 0.0000014084 -0.0000011457
          0.0000039253 0.0000020977 -9.8995e-7 0.0000038278 0.0000026336 -8.6503e-7
          0.0000035155 0.0000031226 -7.5589e-7 0.0000030501 -0.0000019965 0.0000012294
          0.0000032273 -4.1188e-7 0.0000011503 0.0000030403 4.9429e-7 0.0000010411
          0.0000032143 0.0000010613 0.00000118 0.0000033339 0.000001575 0.0000012403
          0.0000030175 0.0000020767 0.0000012326 0.0000033691 0.0000025994 0.0000011267
          0.0000030061 -0.0000037414 6.0684e-7 0.0000034848 -0.0000031892 7.2321e-7
          0.0000033087 0.0000035177 5.7159e-7 0.0000030938 0.000003832 2.4045e-7
          0.000003498 -0.0000034387 -4.5543e-7 0.000003421 0.0000035396 -3.4839e-7
          0.0000034094 -0.0000029535 -9.5117e-7 0.0000034988 -0.0000024065 -0.0000011358
          0.0000034745 -0.0000014338 -0.0000012481 0.0000034927 -1.8549e-7 -0.0000012021
          0.0000034795 3.3601e-7 -0.0000012031 0.0000034893 0.0000018811 -0.000001203
          0.0000034104 0.0000025424 -0.0000011299 0.0000028658 -0.0000033332 0.000001031
          0.0000029871 -0.0000028194 0.0000011767 0.0000029508 -0.0000012471 0.0000011105
          0.0000025682 -9.3987e-7 8.8382e-7 0.0000028518 5.5624e-8 8.8382e-7
          0.000002811 0.0000016161 0.0000011465 0.0000025028 0.0000020262 0.0000011291
          0.0000028359 0.0000030084 0.0000011713 0.0000027439 0.0000036563 9.109e-7
          0.0000027303 0.0000040187 5.3342e-7 0.0000029768 -0.0000039731 -1.0501e-7
          0.0000026789 0.000004216 -2.7425e-9 0.0000025534 -0.0000042062 -2.918e-7
          0.0000028803 0.0000039332 -4.9135e-7 0.0000028529 -0.0000036615 -8.4643e-7
          0.0000029082 -0.0000029929 -0.0000011647 0.0000029814 -0.0000024954 -0.0000012183
          0.000002941 -0.0000019902 -0.0000012116 0.0000029856 -0.000001346 -0.0000011569
          0.0000029777 -5.5017e-7 -9.9206e-7 0.0000029913 5.2364e-8 -9.7102e-7
          0.0000028955 5.7707e-7 -9.4385e-7 0.0000029569 0.0000013217 -0.0000011383
          0.0000026991 0.000001776 -0.0000011316 0.0000029896 0.0000022316 -0.0000012481
          0.0000029811 0.000002998 -0.0000011543 0.0000028953 0.000003599 -8.6803e-7
          0.0000023624 -0.0000040028 8.2902e-7 0.0000021957 -0.0000026608 0.000001193
          0.0000024244 -0.000002152 0.0000011444 0.0000024817 -0.0000014764 9.0357e-7
          0.0000024683 -4.2495e-7 8.8382e-7 0.0000024993 4.1055e-7 8.8382e-7
          0.0000024831 0.0000011522 8.8382e-7 0.0000024654 0.0000026216 0.0000012218
          0.0000021463 0.0000030476 0.0000012478 0.0000020734 0.000003598 0.000001167
          0.0000023292 0.000004002 8.661e-7 0.0000024365 -0.00000429 2.0157e-7
          0.0000024691 0.000004223 -4.65e-7 0.0000024658 -0.0000039959 -7.6393e-7
          0.0000024832 -0.0000034293 -0.0000011455 0.0000022688 -0.0000029485 -0.0000012466
          0.000002413 -0.0000024701 -0.0000011915 0.000002454 -0.0000019824 -0.0000010881
          0.0000024453 -0.0000014725 -8.8382e-7 0.0000024656 -9.4998e-7 -8.8382e-7
          0.0000024304 -3.4935e-7 -8.8382e-7 0.000002367 2.4424e-7 -8.8382e-7
          0.0000024362 0.0000010354 -8.8382e-7 0.000002478 0.0000023551 -0.0000011853
          0.0000024643 0.0000029853 -0.0000012217 0.0000024129 0.0000034802 -0.0000011428
          0.000002499 0.0000039102 -8.6937e-7 0.0000019336 -0.0000035978 0.0000011789
          0.0000016557 -0.000002775 0.0000011379 0.0000019665 -0.0000019894 8.8382e-7
          0.0000019406 -0.0000012291 8.8382e-7 0.0000019615 -4.3515e-7 8.8382e-7
          0.0000019993 1.2629e-7 8.8382e-7 0.0000019758 8.2017e-7 8.8382e-7
          0.0000019401 0.000001446 8.8382e-7 0.0000017808 0.0000020424 8.8382e-7
          0.0000018538 0.0000026503 0.0000011362 0.0000015828 0.0000030892 0.0000011973
          0.0000019925 -0.0000043876 5.8572e-7 0.0000019393 0.00000441 5.9636e-7
          0.0000019788 -0.0000044892 -4.2049e-7 0.00000196 0.0000045251 -3.1164e-7
          0.000001926 -0.0000039859 -0.0000010092 0.0000019882 -0.0000034982 -0.0000011912
          0.0000019228 -0.000002488 -0.0000010771 0.0000019892 -0.0000019941 -8.8382e-7
          0.000001983 -0.0000012104 -8.8382e-7 0.0000018848 -4.1189e-7 -8.8382e-7
          0.0000019623 5.783e-7 -8.8382e-7 0.0000019431 0.0000011704 -8.8382e-7
          0.0000019332 0.0000018113 -8.8382e-7 0.0000019947 0.0000024577 -0.0000010953
          0.0000019772 0.0000031847 -0.000001249 0.000001998 0.000003943 -0.0000010144
          0.0000011062 -0.0000040593 0.0000011559 0.0000014183 -0.0000034299 0.0000012423
          0.0000014517 -0.0000023706 8.8382e-7 0.0000014925 -0.0000018166 8.8382e-7
          0.0000014942 -8.9911e-7 8.8382e-7 0.0000014429 -3.3186e-7 8.8382e-7
          0.0000014839 5.0229e-7 8.8382e-7 0.0000014629 0.0000010875 8.8382e-7
          0.0000012755 0.000001714 8.8382e-7 0.000001454 0.0000024501 8.8382e-7
          0.0000014506 0.0000035781 0.0000012273 0.000001432 0.0000040861 0.0000010746
          0.0000014925 -0.0000044964 7.0004e-7 0.0000014607 0.0000044727 7.4107e-7
          0.0000014396 -0.0000047233 2.0839e-7 0.000001467 0.0000047031 2.3539e-7
          0.0000012526 -0.0000044963 -8.0706e-7 0.0000014142 -0.0000039836 -0.000001146
          0.0000014746 -0.0000034917 -0.0000012414 0.0000014683 -0.0000027194 -0.000001045
          0.0000014948 -0.0000019108 -8.8382e-7 0.0000014528 -0.0000013324 -8.8382e-7
          0.0000014678 -7.8396e-7 -8.8382e-7 0.0000014993 -9.0653e-8 -8.8382e-7
          0.0000013971 5.2393e-7 -8.8382e-7 0.0000013763 0.0000011957 -8.8382e-7
          0.0000013593 0.0000019062 -8.8382e-7 0.0000014937 0.000002453 -8.9193e-7
          0.0000014327 0.0000029503 -0.0000011588 0.0000014915 0.0000034449 -0.0000012482
          0.0000014943 0.0000039545 -0.0000011475 0.0000014789 0.00000438 -8.6709e-7
          9.5311e-7 -0.0000045308 8.8576e-7 9.5646e-7 -0.0000032214 0.0000011751
          9.5395e-7 -0.0000024982 8.8382e-7 9.7836e-7 -0.0000018647 8.8382e-7
          9.7504e-7 -0.0000011319 8.8382e-7 8.8947e-7 -4.9355e-7 8.8382e-7
          9.8569e-7 3.454e-8 8.8382e-7 9.7795e-7 5.8074e-7 8.8382e-7
          8.4503e-7 0.0000011304 8.8382e-7 9.9806e-7 0.0000021325 8.8382e-7
          9.4641e-7 0.0000029074 0.0000010221 5.1798e-7 0.0000031872 0.00000113
          8.5122e-7 0.0000036617 0.0000012453 9.153e-7 0.0000041482 0.0000011332
          9.8834e-7 0.0000046391 7.0287e-7 9.4427e-7 -0.0000048605 2.0253e-7
          9.5988e-7 0.0000048668 1.6996e-7 9.5795e-7 -0.000004829 -3.5339e-7
          9.972e-7 0.0000048162 -3.6173e-7 8.8385e-7 -0.0000029769 -0.0000010521
          9.0323e-7 -0.0000024742 -8.8382e-7 9.9511e-7 -0.0000019488 -8.8382e-7
          9.3128e-7 -0.0000013898 -8.8382e-7 9.9584e-7 -4.3846e-7 -8.8382e-7
          8.2202e-7 2.653e-7 -8.8382e-7 9.4476e-7 8.5294e-7 -8.8382e-7
          9.7712e-7 0.0000015259 -8.8382e-7 9.845e-7 0.0000023717 -8.8382e-7
          5.346e-7 0.0000032168 -0.0000011509 9.2583e-7 0.000003679 -0.0000012377
          5.0464e-7 0.0000042616 -0.0000011016 9.555e-7 0.0000045713 -8.1468e-7
          4.8318e-7 -0.0000042538 0.0000011038 4.9575e-7 -0.000003508 0.0000012121
          1.132e-7 -0.000003105 0.0000010513 4.7141e-7 -0.0000027545 8.8382e-7
          4.8838e-7 -0.0000019738 8.8382e-7 4.6906e-7 -0.0000012391 8.8382e-7
          3.3441e-7 -6.0489e-7 8.8382e-7 4.8385e-7 9.1182e-8 8.8382e-7
          4.3081e-7 6.4999e-7 8.8382e-7 4.868e-7 0.0000015155 8.8382e-7
          4.9609e-7 0.0000020293 8.8382e-7 4.7701e-7 0.0000027375 8.8382e-7
          4.8174e-8 0.0000036294 0.0000012268 4.8004e-7 -0.0000046822 7.3602e-7
          4.9072e-7 0.0000046961 7.2328e-7 1.9687e-7 -0.0000049394 2.0042e-7
          2.0446e-7 0.000004946 1.7724e-7 3.9825e-7 -0.0000049057 -2.6342e-7
          4.7516e-7 0.0000048858 -3.5455e-7 4.6467e-7 -0.0000045985 -8.6376e-7
          3.9779e-7 -0.0000039778 -0.0000011963 3.8431e-7 -0.0000034761 -0.0000012034
          2.6281e-7 -0.0000024915 -8.8382e-7 4.9532e-7 -0.0000019945 -8.8382e-7
          3.9331e-7 -0.0000012467 -8.8382e-7 4.653e-7 -6.1338e-7 -8.8382e-7
          4.6747e-7 -9.5128e-8 -8.8382e-7 4.4813e-7 6.355e-7 -8.8382e-7
          4.551e-7 0.0000012515 -8.8382e-7 4.842e-7 0.0000017607 -8.8382e-7
          4.5831e-7 0.00000232 -8.8382e-7 3.0673e-7 0.000004641 -8.3099e-7
          -1.3521e-8 -0.0000040403 0.0000011919 -1.145e-7 -0.0000035351 0.0000012092
          -4.7152e-7 -0.000003083 0.0000010631 -6.9912e-9 -0.0000023859 8.8382e-7
          -1.2286e-7 -0.0000018544 8.8382e-7 -3.3997e-8 -9.4781e-7 8.8382e-7
          -2.4304e-8 1.811e-8 8.8382e-7 -8.1258e-8 6.1368e-7 8.8382e-7
          -7.6362e-8 0.0000013308 8.8382e-7 -1.4176e-7 0.000002008 8.8382e-7
          -3.377e-8 0.0000030605 0.000001016 -4.9559e-7 0.0000035127 0.0000012131
          -5.2506e-9 0.000004266 0.0000011293 -2.2455e-8 -0.000004766 6.8309e-7
          -1.6404e-8 0.0000047471 7.1179e-7 -3.115e-7 -0.0000049226 2.4514e-7
          -3.7911e-7 0.0000049122 2.4107e-7 -1.3326e-7 -0.000004916 -3.6067e-7
          -1.4852e-7 0.0000049185 -3.3111e-7 -4.869e-8 -0.0000046362 -8.7372e-7
          -1.332e-7 -0.0000039967 -0.0000011984 -1.4229e-7 -0.0000034931 -0.0000012014
          -3.2366e-8 -0.0000029746 -9.5819e-7 -1.125e-8 -0.0000019691 -8.8382e-7
          -8.7282e-8 -9.8666e-7 -8.8382e-7 -9.7073e-9 -4.4174e-7 -8.8382e-7
          -9.8659e-9 1.8582e-7 -8.8382e-7 -1.6239e-9 0.0000010064 -8.8382e-7
          -2.5918e-8 0.000001556 -8.8382e-7 -9.1755e-8 0.0000022656 -8.8382e-7
          -1.1499e-8 0.0000028909 -9.0106e-7 -5.4524e-8 0.0000033553 -0.0000011725
          -3.2664e-8 0.0000038575 -0.0000012279 -5.5567e-8 0.0000043672 -0.0000010581
          -5.1459e-7 -0.0000041421 0.0000011625 -6.8735e-7 -0.0000036381 0.0000012407
          -5.1241e-7 -0.0000024969 8.8382e-7 -6.6865e-7 -0.0000014855 8.8382e-7
          -5.0626e-7 -4.6418e-7 8.8382e-7 -8.4117e-7 5.6706e-7 8.8382e-7
          -6.4015e-7 0.0000012202 8.8382e-7 -7.0347e-7 0.000001748 8.8382e-7
          -5.2195e-7 0.0000026646 8.8382e-7 -5.5261e-7 0.0000042633 0.0000010926
          -5.3512e-7 -0.0000046768 7.4605e-7 -5.2506e-7 0.0000046933 7.1237e-7
          -8.4301e-7 0.0000048424 -3.4681e-7 -6.7222e-7 -0.0000041546 -0.0000011572
          -5.4375e-7 -0.0000029823 -9.9475e-7 -5.5997e-7 -0.0000024728 -8.8382e-7
          -5.0048e-7 -0.0000018394 -8.8382e-7 -5.4843e-7 -0.0000012375 -8.8382e-7
          -5.356e-7 -7.1401e-7 -8.8382e-7 -8.6437e-7 -1.2708e-8 -8.8382e-7
          -5.8133e-7 5.057e-7 -8.8382e-7 -5.1563e-7 0.0000010428 -8.8382e-7
          -5.0756e-7 0.0000019658 -8.8382e-7 -6.5066e-7 0.0000025008 -8.8382e-7
          -8.3019e-7 0.0000032315 -0.0000011696 -5.2587e-7 0.0000037486 -0.0000012392
          -5.713e-7 0.0000042651 -0.0000010901 -5.1797e-7 0.0000046659 -7.545e-7
          -0.0000010854 -0.0000040293 0.0000011615 -0.000001004 -0.0000031977 0.0000011742
          -0.0000010112 -0.0000024063 8.8382e-7 -0.0000010708 -0.0000018628 8.8382e-7
          -0.000001362 -0.0000012838 8.8382e-7 -0.0000010068 -9.2408e-7 8.8382e-7
          -0.0000012431 -4.5152e-7 8.8382e-7 -0.0000010368 1.0177e-7 8.8382e-7
          -0.0000012815 0.000001088 8.8382e-7 -0.0000012238 0.0000017613 8.8382e-7
          -0.0000010071 0.0000025239 8.8382e-7 -0.0000010609 0.000003523 0.0000012389
          -0.0000010267 0.0000040445 0.0000011635 -0.0000013291 -0.0000045454 6.9244e-7
          -0.000001463 0.0000044736 7.4599e-7 -0.0000010121 -0.0000048526 1.6384e-7
          -0.0000010369 0.0000048665 1.2077e-7 -0.0000010213 -0.0000048003 -4.042e-7
          -0.0000011737 -0.0000044822 -8.5013e-7 -0.0000014691 -0.0000039558 -0.0000011515
          -0.0000010201 -0.0000034111 -0.0000012161 -0.0000013708 -0.0000029856 -0.0000011592
          -0.0000013964 -0.0000024808 -8.8382e-7 -0.0000010063 -0.0000018767 -8.8382e-7
          -0.000001444 -0.000001487 -8.8382e-7 -0.0000013173 -9.3391e-7 -8.8382e-7
          -0.0000014647 -4.4874e-7 -8.8382e-7 -0.0000011467 4.1129e-7 -8.8382e-7
          -0.0000010271 0.0000012185 -8.8382e-7 -0.0000010196 0.0000021113 -8.8382e-7
          -0.0000012998 0.0000030489 -0.0000011639 -0.0000010007 0.0000039941 -0.0000011746
          -0.0000010172 0.0000045577 -8.2391e-7 -0.0000016058 -0.0000041649 9.907e-7
          -0.0000015056 -0.0000037105 0.0000011987 -0.0000015383 -0.0000031529 0.0000012044
          -0.0000015056 -0.000002483 9.1344e-7 -0.000001834 -0.0000014694 8.8382e-7
          -0.0000019337 -8.7176e-7 8.8382e-7 -0.0000017584 -2.3971e-7 8.8382e-7
          -0.0000015469 2.2718e-7 8.8382e-7 -0.000001898 9.1718e-7 8.8382e-7
          -0.0000016877 0.0000013813 8.8382e-7 -0.000001535 0.0000026784 0.0000010422
          -0.000001511 0.0000031779 0.0000012068 -0.0000015213 0.0000037742 0.0000011858
          -0.0000015397 -0.0000046821 2.3254e-7 -0.0000015022 0.0000046999 2.2749e-7
          -0.0000015641 -0.0000046403 -4.0007e-7 -0.0000017342 -0.0000043107 -8.5787e-7
          -0.0000016614 -0.0000034339 -0.0000012343 -0.0000019827 -0.0000024985 -0.0000011115
          -0.0000019189 -8.0437e-7 -8.8382e-7 -0.0000015259 8.467e-8 -8.8382e-7
          -0.0000017633 5.7271e-7 -8.8382e-7 -0.0000015721 0.000001045 -8.8382e-7
          -0.0000019617 0.0000016588 -8.8382e-7 -0.0000015351 0.0000020045 -8.8382e-7
          -0.0000019468 0.0000027625 -0.0000011769 -0.0000015276 0.0000034978 -0.0000012352
          -0.0000017123 0.0000039825 -0.0000010797 -0.0000015733 0.0000044268 -7.6397e-7
          -0.0000020835 -0.000003557 0.0000011733 -0.0000020574 -0.0000030459 0.0000012364
          -0.0000021051 -0.0000024273 0.0000011261 -0.0000020719 -0.0000019468 8.8382e-7
          -0.0000023338 -0.0000014189 8.8382e-7 -0.0000024458 -3.8762e-7 8.8382e-7
          -0.0000023444 0.0000016044 8.8382e-7 -0.0000020042 0.0000020251 8.8382e-7
          -0.0000020106 0.0000025281 0.0000011355 -0.0000020345 0.0000030238 0.0000012296
          -0.0000021142 0.0000035564 0.000001169 -0.0000020124 -0.0000045045 2.8069e-7
          -0.0000020699 -0.000004254 7.1241e-7 -0.0000020694 0.0000042601 6.9914e-7
          -0.0000020284 0.0000045012 2.4796e-7 -0.000002077 -0.0000044624 -3.1683e-7
          -0.0000020094 0.0000045045 -2.7908e-7 -0.0000020315 -0.0000039051 -0.0000010265
          -0.0000023261 -0.0000029416 -0.0000012458 -0.0000021804 -0.0000019899 -9.4727e-7
          -0.000002093 -0.0000014891 -8.8382e-7 -0.0000023933 -9.6501e-7 -8.8382e-7
          -0.0000020305 -2.9902e-7 -8.8382e-7 -0.000002276 1.5704e-7 -8.8382e-7
          -0.0000023152 7.4586e-7 -8.8382e-7 -0.0000024929 0.0000013724 -8.8382e-7
          -0.0000023385 0.0000023485 -0.0000011633 -0.0000020793 0.0000034964 -0.0000011828
          -0.0000020811 0.0000041773 -8.0018e-7 -0.0000025789 -0.0000038229 8.9364e-7
          -0.0000025095 -0.0000032698 0.0000011717 -0.0000026056 -0.0000026468 0.0000012433
          -0.0000025473 -0.0000020086 0.0000011446 -0.000002568 -9.4299e-7 8.8382e-7
          -0.0000025181 1.2571e-7 8.8382e-7 -0.0000025134 7.7318e-7 8.8382e-7
          -0.0000027168 0.0000012421 9.6997e-7 -0.0000025313 0.0000020079 0.0000011393
          -0.000002796 0.0000035686 9.3948e-7 -0.0000025296 -0.000004173 4.9851e-7
          -0.0000025325 0.0000040101 6.9724e-7 -0.0000025378 0.0000042315 2.1724e-7
          -0.0000026523 -0.0000041533 -3.4577e-7 -0.0000026691 0.0000041404 -3.0497e-7
          -0.0000025589 -0.0000039245 -8.0599e-7 -0.0000027112 -0.000003472 -0.0000010209
          -0.0000025333 -0.0000024364 -0.0000012042 -0.0000026918 -0.0000019331 -0.0000011643
          -0.0000029356 -0.0000014056 -0.0000011526 -0.000002669 -4.7347e-7 -8.8382e-7
          -0.0000029329 3.8065e-8 -9.3067e-7 -0.0000028477 6.1972e-7 -9.2137e-7
          -0.000002994 0.0000013069 -0.0000011548 -0.0000027513 0.0000017973 -0.0000011578
          -0.0000029295 0.0000023702 -0.0000012422 -0.0000026509 0.0000027888 -0.000001229
          -0.0000027737 0.0000033014 -0.0000010868 -0.0000026905 0.0000038718 -7.5948e-7
          -0.0000032364 -0.0000029885 0.0000010282 -0.0000030841 -0.000001779 0.0000012158
          -0.0000030479 -0.0000012547 0.0000011597 -0.0000030041 -3.5783e-7 0.0000010045
          -0.0000030359 4.3432e-7 0.0000010316 -0.0000030408 0.0000015721 0.0000011877
          -0.0000030259 0.0000020939 0.0000012379 -0.0000030081 0.0000025929 0.0000012019
          -0.0000032071 0.0000030278 0.0000010254 -0.0000030188 -0.000003795 5.2187e-7
          -0.0000032948 -0.0000034091 7.1179e-7 -0.0000031846 0.000003592 6.0793e-7
          -0.0000031126 -0.0000038166 -2.4121e-7 -0.0000030903 0.0000039014 -1.7196e-8
          -0.0000031981 -0.0000034303 -7.7851e-7 -0.0000031025 -0.0000028948 -0.0000011375
          -0.0000034057 -0.0000024922 -0.0000011539 -0.0000034887 -0.0000019816 -0.0000011935
          -0.0000031434 -9.2754e-7 -0.0000011586 -0.0000034182 1.3863e-9 -0.0000011839
          -0.0000033192 5.3403e-7 -0.0000011739 -0.0000034587 0.0000016822 -0.000001228
          -0.0000034155 0.0000024666 -0.0000011538 -0.0000031284 0.0000035052 -7.6225e-7
          -0.0000036738 -0.0000025215 0.0000010026 -0.0000035444 -0.0000019874 0.0000011832
          -0.0000037345 -0.000001487 0.0000011953 -0.000003508 -9.9391e-7 0.000001232
          -0.0000035922 -4.9837e-7 0.0000012289 -0.0000036446 2.4582e-9 0.000001229
          -0.0000035146 7.268e-7 0.0000012192 -0.0000035019 0.0000013065 0.0000012497
          -0.0000035325 0.0000020826 0.0000011777 -0.0000036578 0.0000025331 9.9918e-7
          -0.0000036522 -0.0000030056 7.1045e-7 -0.0000036178 0.0000030251 7.231e-7
          -0.0000035008 -0.0000035048 2.3142e-7 -0.0000039502 -0.0000029702 2.1564e-7
          -0.0000038881 0.0000030351 2.0673e-7 -0.0000035132 0.0000035001 2.0042e-7
          -0.0000035051 -0.0000034826 -2.8895e-7 -0.0000035093 0.0000034717 -3.0613e-7
          -0.0000036042 -0.0000029228 -8.4547e-7 -0.0000035469 -0.0000014776 -0.0000012314
          -0.0000036767 -7.3694e-7 -0.0000012491 -0.0000036128 9.5371e-7 -0.0000012488
          -0.0000039744 0.0000014932 -0.0000011349 -0.0000038626 0.0000025591 -8.7811e-7
          -0.0000035381 0.0000030909 -7.54e-7 -0.0000040406 -0.0000010037 0.0000011656
          -0.000004265 -4.99e-7 0.0000010953 -0.0000042263 8.7624e-9 0.000001155
          -0.0000041527 5.1734e-7 0.0000011604 -0.0000040392 0.0000010342 0.0000011625
          -0.0000040317 0.0000015538 0.0000010864 -0.0000040794 -0.000002332 7.4956e-7
          -0.0000043759 -0.0000018562 6.9906e-7 -0.0000043247 0.0000020818 6.1005e-7
          -0.0000040431 0.0000026419 5.8863e-7 -0.0000043111 -0.0000023869 2.2766e-7
          -0.0000040517 -0.00000283 -2.7416e-7 -0.0000042015 0.0000025768 -3.0754e-7
          -0.0000040121 -0.0000024316 -7.6702e-7 -0.0000042117 -0.0000019359 -8.5895e-7
          -0.000004217 -6.0826e-7 -0.0000011196 -0.0000040826 7.8815e-9 -0.0000011836
          -0.0000041302 5.1732e-7 -0.0000011648 -0.0000044015 0.0000015849 -7.9077e-7
          -0.0000040504 0.0000020774 -9.2585e-7 -0.0000045083 -0.0000011871 8.19e-7
          -0.0000046592 -6.1234e-7 7.4958e-7 -0.0000047335 -1.0254e-7 7.1864e-7
          -0.00000468 5.244e-7 7.4266e-7 -0.0000045863 0.0000010944 7.3372e-7
          -0.0000045028 0.0000015932 6.4097e-7 -0.0000045897 -0.0000018839 1.8717e-7
          -0.0000047534 -0.0000014213 9.0735e-8 -0.0000048518 -9.4661e-7 2.4474e-7
          -0.0000049246 -4.6342e-7 1.3426e-7 -0.0000049449 6.9497e-8 2.4491e-7
          -0.0000049208 5.5829e-7 1.4032e-7 -0.0000048233 0.0000010714 2.2036e-7
          -0.0000046624 0.0000016558 1.6118e-7 -0.0000045213 -0.0000019062 -4.5331e-7
          -0.0000048447 -7.9784e-7 -3.5918e-7 -0.0000049376 1.1812e-7 -2.5905e-7
          -0.0000048492 6.7402e-7 -4.4698e-7 -0.0000047749 0.000001189 -2.8647e-7
          -0.0000045105 0.000002013 -2.523e-7 -0.0000045708 -0.0000011372 -7.5158e-7
          -0.0000046168 -4.4962e-7 -8.3864e-7 -0.0000047039 1.0272e-7 -7.6489e-7
          -0.0000045397 0.0000010083 -8.378e-7
          <InformationKey name="L2_NORM_FINITE_RANGE" location="vtkDataArray" length="2">
            <Value index="0">
              8.8433956264e-07
            </Value>
            <Value index="1">
              4.9951144934e-06
            </Value>
          </InformationKey>
          <InformationKey name="L2_NORM_RANGE" location="vtkDataArray" length="2">
            <Value index="0">
              8.8433956264e-07
            </Value>
            <Value index="1">
              4.9951144934e-06
            </Value>
          </InformationKey>
        </DataArray>
      </Points>
      <Cells>
        <DataArray type="Int64" Name="connectivity" format="ascii" RangeMin="0" RangeMax="534">
          0 1 2 3 4 5
          6 7 8 9 10 11
          12 13 14 15 16 17
          18 19 20 21 22 23
          24 25 26 27 28 29
          30 31 32 33 34 35
          36 37 38 39 40 41
          42 43 44 45 46 47
          48 49 50 51 52 53
          54 55 56 57 58 59
          60 61 62 63 64 65
          66 67 68 69 70 71
          72 73 74 75 76 77
          78 79 80 81 82 83
          84 85 86 87 88 89
          90 91 92 93 94 95
          96 97 98 99 100 101
          102 103 104 105 106 107
          108 109 110 111 112 113
          114 115 116 117 118 119
          120 121 122 123 124 125
          126 127 128 129 130 131
          132 133 134 135 136 137
          138 139 140 141 142 143
          144 145 146 147 148 149
          150 151 152 153 154 155
          156 157 158 159 160 161
          162 163 164 165 166 167
          168 169 170 171 172 173
          174 175 176 177 178 179
          180 181 182 183 184 185
          186 187 188 189 190 191
          192 193 194 195 196 197
          198 199 200 201 202 203
          204 205 206 207 208 209