# vtk DataFile Version 4.2
vtk output
ASCII
DATASET UNSTRUCTURED_GRID
POINTS 30928 float
-2.74517E-07 3.15762E-06 1.68070E-07 -1.35468E-07 3.16065E-06 1.50649E-07 -1.50086E-07 3.22957E-06 -2.08792E-07 
-3.51955E-07 3.22517E-06 -1.83500E-07 -6.34040E-07 1.89268E-06 -2.12384E-06 -2.98345E-07 1.89999E-06 -2.16590E-06 
-3.16121E-07 1.54055E-06 -2.23410E-06 -6.18238E-07 1.53397E-06 -2.19625E-06 -1.67892E-07 3.22704E-06 -5.74631E-07 
-4.24822E-07 3.22144E-06 -5.42440E-07 -3.30704E-07 1.17458E-06 -2.23086E-06 -5.87634E-07 1.16898E-06 -2.19867E-06 
-1.88200E-07 3.15316E-06 -9.32808E-07 -4.90318E-07 3.14658E-06 -8.94955E-07 -3.41533E-07 8.16128E-07 -2.15631E-06 
-5.43401E-07 8.11732E-07 -2.13102E-06 -2.10232E-07 3.01077E-06 -1.26956E-06 -5.45927E-07 3.00346E-06 -1.22750E-06 
-3.48191E-07 4.78978E-07 -2.01332E-06 -4.87241E-07 4.75950E-07 -1.99590E-06 -2.33138E-07 2.80535E-06 -1.57194E-06 
-5.89510E-07 2.79759E-06 -1.52729E-06 -3.50424E-07 1.76085E-07 -1.80738E-06 -4.21311E-07 1.74542E-07 -1.79850E-06 
-2.56040E-07 2.54478E-06 -1.82834E-06 -6.19394E-07 2.53686E-06 -1.78281E-06 -1.95485E-07 3.02139E-06 4.98760E-07 
-1.17895E-07 2.82171E-06 7.95861E-07 -1.24598E-07 3.02293E-06 4.89879E-07 -3.48145E-07 -8.09108E-08 -1.54640E-06 
-2.78058E-07 2.23908E-06 -2.02890E-06 -6.34430E-07 2.23131E-06 -1.98425E-06 -2.63475E-07 3.01110E-06 5.18194E-07 
-4.07884E-07 3.13744E-06 2.06192E-07 -9.76239E-07 2.17959E-06 -1.88654E-06 -9.56017E-07 1.84395E-06 -2.03181E-06 
-5.45574E-07 3.19587E-06 -1.28156E-07 -9.08010E-07 1.49012E-06 -2.11342E-06 -6.71253E-07 3.18415E-06 -4.72000E-07 
-8.34064E-07 1.13169E-06 -2.12823E-06 -7.80090E-07 3.10273E-06 -8.12127E-07 -7.37021E-07 7.82431E-07 -2.07568E-06 
-8.67904E-07 2.95474E-06 -1.13547E-06 -6.20608E-07 4.55767E-07 -1.95778E-06 -9.31320E-07 2.74586E-06 -1.42959E-06 
-4.89301E-07 1.64253E-07 -1.77906E-06 -9.67900E-07 2.48412E-06 -1.68320E-06 -1.04638E-06 3.02329E-06 -6.87506E-07 
-1.16379E-06 2.86647E-06 -9.96995E-07 -9.14950E-07 7.29352E-07 -1.99241E-06 -7.43168E-07 4.19206E-07 -1.90042E-06 
-1.24543E-06 2.65216E-06 -1.28259E-06 -5.51782E-07 1.45614E-07 -1.74982E-06 -1.28816E-06 2.38858E-06 -1.53332E-06 
-3.25955E-07 2.99246E-06 5.47434E-07 -1.29035E-06 2.08588E-06 -1.73954E-06 -5.30444E-07 3.10088E-06 2.63548E-07 
-1.25190E-06 1.75569E-06 -1.89334E-06 -7.23504E-07 3.14279E-06 -4.48871E-08 -1.17430E-06 1.41068E-06 -1.98880E-06 
-8.97714E-07 3.11660E-06 -3.66019E-07 -1.06053E-06 1.06413E-06 -2.02225E-06 -1.56469E-06 1.95380E-06 -1.54890E-06 
-1.51033E-06 1.63127E-06 -1.71375E-06 -6.37487E-07 3.04934E-06 3.37935E-07 -8.78906E-07 3.06797E-06 6.31062E-08 
-1.40688E-06 1.29871E-06 -1.82717E-06 -1.09550E-06 3.02137E-06 -2.28570E-07 -1.25832E-06 9.68908E-07 -1.88480E-06 
-1.27896E-06 2.91132E-06 -5.25883E-07 -1.07035E-06 6.54534E-07 -1.88441E-06 -1.42221E-06 2.74205E-06 -8.17408E-07 
-8.50211E-07 3.67671E-07 -1.82603E-06 -1.51977E-06 2.52007E-06 -1.09194E-06 -6.06351E-07 1.19341E-07 -1.71190E-06 
-1.56788E-06 2.25391E-06 -1.33894E-06 -3.80525E-07 2.96619E-06 5.85357E-07 -1.19725E-06 5.60853E-07 -1.75585E-06 
-9.37623E-07 3.03142E-07 -1.73747E-06 -1.63324E-06 2.58627E-06 -6.03608E-07 -1.74380E-06 2.35469E-06 -8.64973E-07 
-6.50914E-07 8.64449E-08 -1.66675E-06 -1.79630E-06 2.08529E-06 -1.10752E-06 -4.25087E-07 2.93329E-06 6.30504E-07 
-1.78872E-06 1.78842E-06 -1.32193E-06 -7.24899E-07 2.98481E-06 4.26494E-07 -1.72136E-06 1.47548E-06 -1.49995E-06 
-1.00581E-06 2.97429E-06 1.91674E-07 -1.59680E-06 1.15851E-06 -1.63476E-06 -1.25702E-06 2.90214E-06 -6.49341E-08 
-1.41983E-06 8.49675E-07 -1.72116E-06 -1.46888E-06 2.77112E-06 -3.33468E-07 -7.89321E-07 2.90977E-06 5.25822E-07 
-1.09933E-06 2.86535E-06 3.35875E-07 -1.87689E-06 1.29432E-06 -1.26015E-06 -1.73677E-06 9.95461E-07 -1.41895E-06 
-1.37606E-06 2.76348E-06 1.18600E-07 -1.53887E-06 7.11015E-07 -1.53763E-06 -1.60885E-06 2.60807E-06 -1.17655E-07 
-1.29078E-06 4.51909E-07 -1.61164E-06 -1.78877E-06 2.40510E-06 -3.63810E-07 -1.00204E-06 2.28100E-07 -1.63815E-06 
-1.90891E-06 2.16237E-06 -6.10405E-07 -6.83755E-07 4.81888E-08 -1.61612E-06 -1.96464E-06 1.88920E-06 -8.47964E-07 
-4.57929E-07 2.89504E-06 6.81140E-07 -1.95383E-06 1.59609E-06 -1.06736E-06 -1.88282E-06 2.20551E-06 -1.07229E-07 
-2.00875E-06 1.95049E-06 -3.38020E-07 -1.04100E-06 1.45428E-07 -1.53187E-06 -7.03615E-07 6.04302E-09 -1.56193E-06 
-2.06644E-06 1.67317E-06 -5.70242E-07 -4.77789E-07 2.85289E-06 7.35321E-07 -2.05367E-06 1.38421E-06 -7.94972E-07 
-8.28277E-07 2.82710E-06 6.32101E-07 -1.97093E-06 1.09473E-06 -1.00357E-06 -1.15589E-06 2.74533E-06 4.90169E-07 
-1.82141E-06 8.15838E-07 -1.18803E-06 -1.44804E-06 2.61072E-06 3.14978E-07 -1.61085E-06 5.58258E-07 -1.34125E-06 
-1.69349E-06 2.42845E-06 1.13262E-07 -1.34734E-06 3.31888E-07 -1.45735E-06 -1.99989E-06 8.84392E-07 -7.40070E-07 
-1.84747E-06 6.26540E-07 -9.50882E-07 -1.17330E-06 2.61884E-06 6.48625E-07 -1.47020E-06 2.44974E-06 5.16655E-07 
-1.63301E-06 3.97274E-07 -1.13957E-06 -1.71955E-06 2.23915E-06 3.50409E-07 -1.36475E-06 2.05404E-07 -1.29889E-06 
-1.91177E-06 1.99518E-06 1.56274E-07 -1.05299E-06 5.83041E-08 -1.42272E-06 -2.03949E-06 1.72719E-06 -5.82862E-08 
-7.09729E-07 -3.83725E-08 -1.50629E-06 -2.09778E-06 1.44550E-06 -2.85028E-07 -4.83903E-07 2.80847E-06 7.90964E-07 
-2.08441E-06 1.16092E-06 -5.15239E-07 -8.40270E-07 2.73997E-06 7.41248E-07 -1.03756E-06 -2.99248E-08 -1.31490E-06 
-7.01863E-07 -8.33511E-08 -1.45133E-06 -1.99994E-06 1.50107E-06 2.18046E-07 -2.05746E-06 1.21495E-06 -3.28254E-09 
-4.76036E-07 2.76350E-06 8.45929E-07 -2.04486E-06 9.34799E-07 -2.38907E-07 -8.24839E-07 2.65175E-06 8.49068E-07 
-1.96264E-06 6.71389E-07 -4.79771E-07 -1.15090E-06 2.49076E-06 8.05155E-07 -1.81394E-06 4.34842E-07 -7.16619E-07 
-1.44169E-06 2.28671E-06 7.15879E-07 -1.60450E-06 2.34248E-07 -9.40350E-07 -1.68602E-06 2.04745E-06 5.84672E-07 
-1.34235E-06 7.73153E-08 -1.14236E-06 -1.87452E-06 1.78217E-06 4.16574E-07 -1.72212E-06 2.48112E-07 -4.94242E-07 
-1.52641E-06 7.54468E-08 -7.51233E-07 -1.36360E-06 2.12791E-06 9.04996E-07 -1.59420E-06 1.86072E-06 8.07049E-07 
-1.28099E-06 -4.74540E-08 -9.93777E-07 -1.77249E-06 1.57469E-06 6.63666E-07 -9.95302E-07 -1.15867E-07 -1.21255E-06 
-1.89163E-06 1.28081E-06 4.80358E-07 -6.80318E-07 -1.27164E-07 -1.39915E-06 -1.94702E-06 9.90370E-07 2.64168E-07 
-4.54492E-07 2.71968E-06 8.98107E-07 -1.93655E-06 7.14535E-07 2.34052E-08 -7.82578E-07 2.56580E-06 9.51416E-07 
-1.86061E-06 4.63906E-07 -2.32679E-07 -1.08954E-06 2.36599E-06 9.53743E-07 -4.20097E-07 2.67872E-06 9.45490E-07 
-6.45923E-07 -1.68128E-07 -1.35177E-06 -1.77072E-06 7.80395E-07 5.07046E-07 -1.76363E-06 5.08595E-07 2.61616E-07 
-7.15110E-07 2.48545E-06 1.04436E-06 -1.69773E-06 2.69914E-07 -8.28911E-09 -9.91597E-07 2.24933E-06 1.08868E-06 
-1.57553E-06 7.35241E-08 -2.92297E-07 -1.23893E-06 1.97943E-06 1.07674E-06 -1.40174E-06 -7.30278E-08 -5.79493E-07 
-1.44761E-06 1.68613E-06 1.00899E-06 -1.18304E-06 -1.64110E-07 -8.58841E-07 -1.60961E-06 1.38070E-06 8.88056E-07 
-9.27834E-07 -1.96221E-07 -1.11961E-06 -1.71871E-06 1.07487E-06 7.18568E-07 -1.07248E-06 1.84699E-06 1.22450E-06 
-1.25189E-06 1.53040E-06 1.18275E-06 -1.23529E-06 -2.05470E-07 -4.31728E-07 -1.05226E-06 -2.68168E-07 -7.42743E-07 
-1.39214E-06 1.20766E-06 1.08112E-06 -8.37752E-07 -2.67898E-07 -1.03964E-06 -1.48784E-06 8.91166E-07 9.23524E-07 
-6.00000E-07 -2.04669E-07 -1.31100E-06 -1.53532E-06 5.93094E-07 7.16016E-07 -3.74174E-07 2.64218E-06 9.86258E-07 
-1.53276E-06 3.24893E-07 4.66571E-07 -6.25028E-07 2.41377E-06 1.12433E-06 -1.48025E-06 9.68706E-08 1.84775E-07 
-8.60818E-07 2.14527E-06 1.20478E-06 -1.37981E-06 -8.22109E-08 -1.18544E-07 -1.24988E-06 4.35664E-07 8.83049E-07 
-1.25280E-06 1.70488E-07 6.30395E-07 -3.18487E-07 2.61146E-06 1.01884E-06 -5.15795E-07 2.35353E-06 1.18825E-06 
-1.21654E-06 -4.85755E-08 3.39093E-07 -7.02235E-07 2.05781E-06 1.29757E-06 -1.14247E-06 -2.13109E-07 2.03388E-08 
-8.70645E-07 1.73567E-06 1.34261E-06 -1.03346E-06 -3.16789E-07 -3.13618E-07 -1.01455E-06 1.39950E-06 1.32163E-06 
-8.93682E-07 -3.55632E-07 -6.49945E-07 -1.12842E-06 1.06221E-06 1.23544E-06 -7.28518E-07 -3.28144E-07 -9.75715E-07 
-1.20788E-06 7.36761E-07 1.08735E-06 -5.44313E-07 -2.35382E-07 -1.27841E-06 -8.03987E-07 -4.02709E-07 -2.29701E-07 
-7.13388E-07 -4.23138E-07 -5.84012E-07 -7.44722E-07 1.29847E-06 1.42031E-06 -8.28606E-07 9.49950E-07 1.34508E-06 
-6.04330E-07 -3.74643E-07 -9.30300E-07 -8.89600E-07 6.17588E-07 1.20374E-06 -4.81002E-07 -2.59087E-07 -1.25526E-06 
-9.25363E-07 3.14156E-07 1.00173E-06 -2.55176E-07 2.58776E-06 1.04200E-06 -9.34520E-07 5.13148E-08 7.46791E-07 
-3.91606E-07 2.30703E-06 1.23367E-06 -9.16719E-07 -1.60835E-07 4.48736E-07 -5.21942E-07 1.99030E-06 1.36351E-06 
-8.72643E-07 -3.14139E-07 1.19015E-07 -6.41175E-07 1.64975E-06 1.42653E-06 -1.86675E-07 2.57197E-06 1.05483E-06 
-2.57236E-07 2.27606E-06 1.25883E-06 -5.90141E-07 -2.80478E-08 8.11287E-07 -5.92321E-07 -2.35593E-07 5.09490E-07 
-3.26867E-07 1.94535E-06 1.40004E-06 -5.80692E-07 -3.81420E-07 1.73692E-07 -3.92892E-07 1.59254E-06 1.47303E-06 
-5.55703E-07 -4.59926E-07 -1.83202E-07 -4.52772E-07 1.23119E-06 1.47498E-06 -5.18313E-07 -4.68093E-07 -5.47478E-07 
-5.04208E-07 8.75192E-07 1.40583E-06 -4.69960E-07 -4.05609E-07 -9.05135E-07 -5.45221E-07 5.38225E-07 1.26824E-06 
-4.12501E-07 -2.74873E-07 -1.24243E-06 -5.74237E-07 2.33239E-07 1.06749E-06 -1.49919E-07 1.20024E-06 1.48356E-06 
-1.67695E-07 8.40808E-07 1.41536E-06 -3.15953E-07 -4.88770E-07 -5.41747E-07 -3.30572E-07 -4.19851E-07 -9.01187E-07 
-1.87982E-07 5.01723E-07 1.27836E-06 -3.41442E-07 -2.82134E-07 -1.24042E-06 -2.09999E-07 1.96022E-07 1.07780E-06 
-1.15616E-07 2.56471E-06 1.05684E-06 -2.32901E-07 -6.45498E-08 8.21404E-07 -1.17848E-07 2.26182E-06 1.26278E-06 
-2.55808E-07 -2.69977E-07 5.19020E-07 -1.24507E-07 1.92467E-06 1.40577E-06 -2.77839E-07 -4.12365E-07 1.82269E-07 
-1.35336E-07 1.56622E-06 1.48032E-06 -2.98148E-07 -4.86242E-07 -1.75908E-07 1.23471E-07 -5.67882E-08 7.76753E-07 
[...]
CELL_DATA 1
FIELD FieldData 9
cell_type_id 1 2 int
0 0 0 0 0 0 0 0 4
METADATA
INFORMATION 0


