# vtk DataFile Version 4.2
vtk output
ASCII
DATASET UNSTRUCTURED_GRID
POINTS 1914 float
5.00000E-01 0.00000E+00 1.50000E+00 5.00000E-01 0.00000E+00 -1.50000E+00 4.85471E-01 1.19658E-01 1.50000E+00 
4.85471E-01 1.19658E-01 -1.50000E+00 4.42728E-01 2.32362E-01 1.50000E+00 4.42728E-01 2.32362E-01 -1.50000E+00 
3.74255E-01 3.31561E-01 1.50000E+00 3.74255E-01 3.31561E-01 -1.50000E+00 2.84032E-01 4.11492E-01 1.50000E+00 
2.84032E-01 4.11492E-01 -1.50000E+00 1.77302E-01 4.67508E-01 1.50000E+00 1.77302E-01 4.67508E-01 -1.50000E+00 
6.02683E-02 4.96354E-01 1.50000E+00 6.02683E-02 4.96354E-01 -1.50000E+00 -6.02683E-02 4.96354E-01 1.50000E+00 
-6.02683E-02 4.96354E-01 -1.50000E+00 -1.77302E-01 4.67508E-01 1.50000E+00 -1.77302E-01 4.67508E-01 -1.50000E+00 
-2.84032E-01 4.11492E-01 1.50000E+00 -2.84032E-01 4.11492E-01 -1.50000E+00 -3.74255E-01 3.31561E-01 1.50000E+00 
-3.74255E-01 3.31561E-01 -1.50000E+00 -4.42728E-01 2.32362E-01 1.50000E+00 -4.42728E-01 2.32362E-01 -1.50000E+00 
-4.85471E-01 1.19658E-01 1.50000E+00 -4.85471E-01 1.19658E-01 -1.50000E+00 -5.00000E-01 6.12323E-17 1.50000E+00 
-5.00000E-01 6.12323E-17 -1.50000E+00 -4.85471E-01 -1.19658E-01 1.50000E+00 -4.85471E-01 -1.19658E-01 -1.50000E+00 
-4.42728E-01 -2.32362E-01 1.50000E+00 -4.42728E-01 -2.32362E-01 -1.50000E+00 -3.74255E-01 -3.31561E-01 1.50000E+00 
-3.74255E-01 -3.31561E-01 -1.50000E+00 -2.84032E-01 -4.11492E-01 1.50000E+00 -2.84032E-01 -4.11492E-01 -1.50000E+00 
-1.77302E-01 -4.67508E-01 1.50000E+00 -1.77302E-01 -4.67508E-01 -1.50000E+00 -6.02683E-02 -4.96354E-01 1.50000E+00 
-6.02683E-02 -4.96354E-01 -1.50000E+00 6.02683E-02 -4.96354E-01 1.50000E+00 6.02683E-02 -4.96354E-01 -1.50000E+00 
1.77302E-01 -4.67508E-01 1.50000E+00 1.77302E-01 -4.67508E-01 -1.50000E+00 2.84032E-01 -4.11492E-01 1.50000E+00 
2.84032E-01 -4.11492E-01 -1.50000E+00 3.74255E-01 -3.31561E-01 1.50000E+00 3.74255E-01 -3.31561E-01 -1.50000E+00 
4.42728E-01 -2.32362E-01 1.50000E+00 4.42728E-01 -2.32362E-01 -1.50000E+00 4.85471E-01 -1.19658E-01 1.50000E+00 
4.85471E-01 -1.19658E-01 -1.50000E+00 5.00000E-01 0.00000E+00 1.50000E+00 4.85471E-01 1.19658E-01 1.50000E+00 
4.42728E-01 2.32362E-01 1.50000E+00 3.74255E-01 3.31561E-01 1.50000E+00 2.84032E-01 4.11492E-01 1.50000E+00 
1.77302E-01 4.67508E-01 1.50000E+00 6.02683E-02 4.96354E-01 1.50000E+00 -6.02683E-02 4.96354E-01 1.50000E+00 
-1.77302E-01 4.67508E-01 1.50000E+00 -2.84032E-01 4.11492E-01 1.50000E+00 -3.74255E-01 3.31561E-01 1.50000E+00 
-4.42728E-01 2.32362E-01 1.50000E+00 -4.85471E-01 1.19658E-01 1.50000E+00 -5.00000E-01 6.12323E-17 1.50000E+00 
-4.85471E-01 -1.19658E-01 1.50000E+00 -4.42728E-01 -2.32362E-01 1.50000E+00 -3.74255E-01 -3.31561E-01 1.50000E+00 
-2.84032E-01 -4.11492E-01 1.50000E+00 -1.77302E-01 -4.67508E-01 1.50000E+00 -6.02683E-02 -4.96354E-01 1.50000E+00 
6.02683E-02 -4.96354E-01 1.50000E+00 1.77302E-01 -4.67508E-01 1.50000E+00 2.84032E-01 -4.11492E-01 1.50000E+00 
3.74255E-01 -3.31561E-01 1.50000E+00 4.42728E-01 -2.32362E-01 1.50000E+00 4.85471E-01 -1.19658E-01 1.50000E+00 
4.85471E-01 -1.19658E-01 -1.50000E+00 4.42728E-01 -2.32362E-01 -1.50000E+00 3.74255E-01 -3.31561E-01 -1.50000E+00 
2.84032E-01 -4.11492E-01 -1.50000E+00 1.77302E-01 -4.67508E-01 -1.50000E+00 6.02683E-02 -4.96354E-01 -1.50000E+00 
-6.02683E-02 -4.96354E-01 -1.50000E+00 -1.77302E-01 -4.67508E-01 -1.50000E+00 -2.84032E-01 -4.11492E-01 -1.50000E+00 
-3.74255E-01 -3.31561E-01 -1.50000E+00 -4.42728E-01 -2.32362E-01 -1.50000E+00 -4.85471E-01 -1.19658E-01 -1.50000E+00 
-5.00000E-01 6.12323E-17 -1.50000E+00 -4.85471E-01 1.19658E-01 -1.50000E+00 -4.42728E-01 2.32362E-01 -1.50000E+00 
-3.74255E-01 3.31561E-01 -1.50000E+00 -2.84032E-01 4.11492E-01 -1.50000E+00 -1.77302E-01 4.67508E-01 -1.50000E+00 
-6.02683E-02 4.96354E-01 -1.50000E+00 6.02683E-02 4.96354E-01 -1.50000E+00 1.77302E-01 4.67508E-01 -1.50000E+00 
2.84032E-01 4.11492E-01 -1.50000E+00 3.74255E-01 3.31561E-01 -1.50000E+00 4.42728E-01 2.32362E-01 -1.50000E+00 
4.85471E-01 1.19658E-01 -1.50000E+00 5.00000E-01 0.00000E+00 -1.50000E+00 0.00000E+00 0.00000E+00 1.00000E-01 
0.00000E+00 0.00000E+00 -1.00000E-01 1.64595E-02 0.00000E+00 9.86361E-02 3.24699E-02 0.00000E+00 9.45817E-02 
4.75947E-02 0.00000E+00 8.79474E-02 6.14213E-02 0.00000E+00 7.89141E-02 7.35724E-02 0.00000E+00 6.77282E-02 
8.37166E-02 0.00000E+00 5.46948E-02 9.15773E-02 0.00000E+00 4.01695E-02 9.69400E-02 0.00000E+00 2.45485E-02 
9.96585E-02 0.00000E+00 8.25793E-03 9.96585E-02 0.00000E+00 -8.25793E-03 9.69400E-02 0.00000E+00 -2.45485E-02 
9.15773E-02 0.00000E+00 -4.01695E-02 8.37166E-02 0.00000E+00 -5.46948E-02 7.35724E-02 0.00000E+00 -6.77282E-02 
6.14213E-02 0.00000E+00 -7.89141E-02 4.75947E-02 0.00000E+00 -8.79474E-02 3.24699E-02 0.00000E+00 -9.45817E-02 
1.64595E-02 0.00000E+00 -9.86361E-02 1.56539E-02 5.08625E-03 9.86361E-02 3.08808E-02 1.00338E-02 9.45817E-02 
4.52653E-02 1.47076E-02 8.79474E-02 5.84151E-02 1.89802E-02 7.89141E-02 6.99715E-02 2.27351E-02 6.77282E-02 
7.96193E-02 2.58699E-02 5.46948E-02 8.70952E-02 2.82990E-02 4.01695E-02 9.21954E-02 2.99561E-02 2.45485E-02 
9.47808E-02 3.07962E-02 8.25793E-03 9.47808E-02 3.07962E-02 -8.25793E-03 9.21954E-02 2.99561E-02 -2.45485E-02 
8.70952E-02 2.82990E-02 -4.01695E-02 7.96193E-02 2.58699E-02 -5.46948E-02 6.99715E-02 2.27351E-02 -6.77282E-02 
5.84151E-02 1.89802E-02 -7.89141E-02 4.52653E-02 1.47076E-02 -8.79474E-02 3.08808E-02 1.00338E-02 -9.45817E-02 
1.56539E-02 5.08625E-03 -9.86361E-02 1.33160E-02 9.67463E-03 9.86361E-02 2.62687E-02 1.90854E-02 9.45817E-02 
3.85050E-02 2.79755E-02 8.79474E-02 4.96909E-02 3.61025E-02 7.89141E-02 5.95213E-02 4.32448E-02 6.77282E-02 
6.77282E-02 4.92074E-02 5.46948E-02 7.40876E-02 5.38278E-02 4.01695E-02 7.84261E-02 5.69799E-02 2.45485E-02 
8.06254E-02 5.85778E-02 8.25793E-03 8.06254E-02 5.85778E-02 -8.25793E-03 7.84261E-02 5.69799E-02 -2.45485E-02 
7.40876E-02 5.38278E-02 -4.01695E-02 6.77282E-02 4.92074E-02 -5.46948E-02 5.95213E-02 4.32448E-02 -6.77282E-02 
4.96909E-02 3.61025E-02 -7.89141E-02 3.85050E-02 2.79755E-02 -8.79474E-02 2.62687E-02 1.90854E-02 -9.45817E-02 
1.33160E-02 9.67463E-03 -9.86361E-02 9.67463E-03 1.33160E-02 9.86361E-02 1.90854E-02 2.62687E-02 9.45817E-02 
2.79755E-02 3.85050E-02 8.79474E-02 3.61025E-02 4.96909E-02 7.89141E-02 4.32448E-02 5.95213E-02 6.77282E-02 
4.92074E-02 6.77282E-02 5.46948E-02 5.38278E-02 7.40876E-02 4.01695E-02 5.69799E-02 7.84261E-02 2.45485E-02 
5.85778E-02 8.06254E-02 8.25793E-03 5.85778E-02 8.06254E-02 -8.25793E-03 5.69799E-02 7.84261E-02 -2.45485E-02 
5.38278E-02 7.40876E-02 -4.01695E-02 4.92074E-02 6.77282E-02 -5.46948E-02 4.32448E-02 5.95213E-02 -6.77282E-02 
3.61025E-02 4.96909E-02 -7.89141E-02 2.79755E-02 3.85050E-02 -8.79474E-02 1.90854E-02 2.62687E-02 -9.45817E-02 
9.67463E-03 1.33160E-02 -9.86361E-02 5.08625E-03 1.56539E-02 9.86361E-02 1.00338E-02 3.08808E-02 9.45817E-02 
1.47076E-02 4.52653E-02 8.79474E-02 1.89802E-02 5.84151E-02 7.89141E-02 2.27351E-02 6.99715E-02 6.77282E-02 
2.58699E-02 7.96193E-02 5.46948E-02 2.82990E-02 8.70952E-02 4.01695E-02 2.99561E-02 9.21954E-02 2.45485E-02 
3.07962E-02 9.47808E-02 8.25793E-03 3.07962E-02 9.47808E-02 -8.25793E-03 2.99561E-02 9.21954E-02 -2.45485E-02 
2.82990E-02 8.70952E-02 -4.01695E-02 2.58699E-02 7.96193E-02 -5.46948E-02 2.27351E-02 6.99715E-02 -6.77282E-02 
1.89802E-02 5.84151E-02 -7.89141E-02 1.47076E-02 4.52653E-02 -8.79474E-02 1.00338E-02 3.08808E-02 -9.45817E-02 
5.08625E-03 1.56539E-02 -9.86361E-02 1.00785E-18 1.64595E-02 9.86361E-02 1.98821E-18 3.24699E-02 9.45817E-02 
2.91434E-18 4.75947E-02 8.79474E-02 3.76097E-18 6.14213E-02 7.89141E-02 4.50501E-18 7.35724E-02 6.77282E-02 
5.12617E-18 8.37166E-02 5.46948E-02 5.60749E-18 9.15773E-02 4.01695E-02 5.93586E-18 9.69400E-02 2.45485E-02 
6.10232E-18 9.96585E-02 8.25793E-03 6.10232E-18 9.96585E-02 -8.25793E-03 5.93586E-18 9.69400E-02 -2.45485E-02 
5.60749E-18 9.15773E-02 -4.01695E-02 5.12617E-18 8.37166E-02 -5.46948E-02 4.50501E-18 7.35724E-02 -6.77282E-02 
3.76097E-18 6.14213E-02 -7.89141E-02 2.91434E-18 4.75947E-02 -8.79474E-02 1.98821E-18 3.24699E-02 -9.45817E-02 
1.00785E-18 1.64595E-02 -9.86361E-02 -5.08625E-03 1.56539E-02 9.86361E-02 -1.00338E-02 3.08808E-02 9.45817E-02 
-1.47076E-02 4.52653E-02 8.79474E-02 -1.89802E-02 5.84151E-02 7.89141E-02 -2.27351E-02 6.99715E-02 6.77282E-02 
-2.58699E-02 7.96193E-02 5.46948E-02 -2.82990E-02 8.70952E-02 4.01695E-02 -2.99561E-02 9.21954E-02 2.45485E-02 
-3.07962E-02 9.47808E-02 8.25793E-03 -3.07962E-02 9.47808E-02 -8.25793E-03 -2.99561E-02 9.21954E-02 -2.45485E-02 
-2.82990E-02 8.70952E-02 -4.01695E-02 -2.58699E-02 7.96193E-02 -5.46948E-02 -2.27351E-02 6.99715E-02 -6.77282E-02 
-1.89802E-02 5.84151E-02 -7.89141E-02 -1.47076E-02 4.52653E-02 -8.79474E-02 -1.00338E-02 3.08808E-02 -9.45817E-02 
-5.08625E-03 1.56539E-02 -9.86361E-02 -9.67463E-03 1.33160E-02 9.86361E-02 -1.90854E-02 2.62687E-02 9.45817E-02 
-2.79755E-02 3.85050E-02 8.79474E-02 -3.61025E-02 4.96909E-02 7.89141E-02 -4.32448E-02 5.95213E-02 6.77282E-02 
-4.92074E-02 6.77282E-02 5.46948E-02 -5.38278E-02 7.40876E-02 4.01695E-02 -5.69799E-02 7.84261E-02 2.45485E-02 
-5.85778E-02 8.06254E-02 8.25793E-03 -5.85778E-02 8.06254E-02 -8.25793E-03 -5.69799E-02 7.84261E-02 -2.45485E-02 
-5.38278E-02 7.40876E-02 -4.01695E-02 -4.92074E-02 6.77282E-02 -5.46948E-02 -4.32448E-02 5.95213E-02 -6.77282E-02 
-3.61025E-02 4.96909E-02 -7.89141E-02 -2.79755E-02 3.85050E-02 -8.79474E-02 -1.90854E-02 2.62687E-02 -9.45817E-02 
-9.67463E-03 1.33160E-02 -9.86361E-02 -1.33160E-02 9.67463E-03 9.86361E-02 -2.62687E-02 1.90854E-02 9.45817E-02 
-3.85050E-02 2.79755E-02 8.79474E-02 -4.96909E-02 3.61025E-02 7.89141E-02 -5.95213E-02 4.32448E-02 6.77282E-02 
-6.77282E-02 4.92074E-02 5.46948E-02 -7.40876E-02 5.38278E-02 4.01695E-02 -7.84261E-02 5.69799E-02 2.45485E-02 
-8.06254E-02 5.85778E-02 8.25793E-03 -8.06254E-02 5.85778E-02 -8.25793E-03 -7.84261E-02 5.69799E-02 -2.45485E-02 
-7.40876E-02 5.38278E-02 -4.01695E-02 -6.77282E-02 4.92074E-02 -5.46948E-02 -5.95213E-02 4.32448E-02 -6.77282E-02 
[...]
CELL_DATA 1
FIELD FieldData 1
cell_type_id 8 1 int
4 4 4 0 0 0 0 0
METADATA
INFORMATION 0

