# vtk DataFile Version 4.2
vtk output
ASCII
DATASET UNSTRUCTURED_GRID
POINTS 406 float
-5.95932E-07 2.80364E-06 -8.83817E-07 -1.62348E-06 2.36217E-06 -8.83817E-07 -2.40386E-06 1.56109E-06 -8.83817E-07 
-2.81828E-06 5.22337E-07 -8.83817E-07 -2.80364E-06 -5.95932E-07 -8.83817E-07 -2.36217E-06 -1.62348E-06 -8.83817E-07 
-1.56109E-06 -2.40386E-06 -8.83817E-07 -5.22337E-07 -2.81828E-06 -8.83817E-07 5.95932E-07 -2.80364E-06 -8.83817E-07 
1.62348E-06 -2.36217E-06 -8.83817E-07 2.40386E-06 -1.56109E-06 -8.83817E-07 2.81828E-06 -5.22337E-07 -8.83817E-07 
2.80364E-06 5.95932E-07 -8.83817E-07 2.36217E-06 1.62348E-06 -8.83817E-07 1.56109E-06 2.40386E-06 -8.83817E-07 
5.22337E-07 2.81828E-06 -8.83817E-07 -6.80240E-07 3.20028E-06 -1.15476E-06 -1.85315E-06 2.69636E-06 -1.15476E-06 
-2.74394E-06 1.78194E-06 -1.15476E-06 -3.21699E-06 5.96234E-07 -1.15476E-06 -3.20028E-06 -6.80240E-07 -1.15476E-06 
-2.69636E-06 -1.85315E-06 -1.15476E-06 -1.78194E-06 -2.74394E-06 -1.15476E-06 -5.96234E-07 -3.21699E-06 -1.15476E-06 
6.80240E-07 -3.20028E-06 -1.15476E-06 1.85315E-06 -2.69636E-06 -1.15476E-06 2.74394E-06 -1.78194E-06 -1.15476E-06 
3.21699E-06 -5.96234E-07 -1.15476E-06 3.20028E-06 6.80240E-07 -1.15476E-06 2.69636E-06 1.85315E-06 -1.15476E-06 
1.78194E-06 2.74394E-06 -1.15476E-06 5.96234E-07 3.21699E-06 -1.15476E-06 -7.79688E-07 3.66815E-06 -1.24991E-06 
-2.12408E-06 3.09055E-06 -1.24991E-06 -3.14509E-06 2.04245E-06 -1.24991E-06 -3.68730E-06 6.83400E-07 -1.24991E-06 
-3.66815E-06 -7.79688E-07 -1.24991E-06 -3.09055E-06 -2.12408E-06 -1.24991E-06 -2.04245E-06 -3.14509E-06 -1.24991E-06 
-6.83400E-07 -3.68730E-06 -1.24991E-06 7.79688E-07 -3.66815E-06 -1.24991E-06 2.12408E-06 -3.09055E-06 -1.24991E-06 
3.14509E-06 -2.04245E-06 -1.24991E-06 3.68730E-06 -6.83400E-07 -1.24991E-06 3.66815E-06 7.79688E-07 -1.24991E-06 
3.09055E-06 2.12408E-06 -1.24991E-06 2.04245E-06 3.14509E-06 -1.24991E-06 6.83400E-07 3.68730E-06 -1.24991E-06 
-8.79136E-07 4.13601E-06 -1.15476E-06 -2.39500E-06 3.48475E-06 -1.15476E-06 -3.54624E-06 2.30296E-06 -1.15476E-06 
-4.15761E-06 7.70567E-07 -1.15476E-06 -4.13601E-06 -8.79136E-07 -1.15476E-06 -3.48475E-06 -2.39500E-06 -1.15476E-06 
-2.30296E-06 -3.54624E-06 -1.15476E-06 -7.70567E-07 -4.15761E-06 -1.15476E-06 8.79136E-07 -4.13601E-06 -1.15476E-06 
2.39500E-06 -3.48475E-06 -1.15476E-06 3.54624E-06 -2.30296E-06 -1.15476E-06 4.15761E-06 -7.70567E-07 -1.15476E-06 
4.13601E-06 8.79136E-07 -1.15476E-06 3.48475E-06 2.39500E-06 -1.15476E-06 2.30296E-06 3.54624E-06 -1.15476E-06 
7.70567E-07 4.15761E-06 -1.15476E-06 -9.63444E-07 4.53265E-06 -8.83817E-07 -2.62468E-06 3.81893E-06 -8.83817E-07 
-3.88632E-06 2.52381E-06 -8.83817E-07 -4.55632E-06 8.44463E-07 -8.83817E-07 -4.53265E-06 -9.63444E-07 -8.83817E-07 
-3.81893E-06 -2.62468E-06 -8.83817E-07 -2.52381E-06 -3.88632E-06 -8.83817E-07 -8.44463E-07 -4.55632E-06 -8.83817E-07 
9.63444E-07 -4.53265E-06 -8.83817E-07 2.62468E-06 -3.81893E-06 -8.83817E-07 3.88632E-06 -2.52381E-06 -8.83817E-07 
4.55632E-06 -8.44463E-07 -8.83817E-07 4.53265E-06 9.63444E-07 -8.83817E-07 3.81893E-06 2.62468E-06 -8.83817E-07 
2.52381E-06 3.88632E-06 -8.83817E-07 8.44463E-07 4.55632E-06 -8.83817E-07 -1.01978E-06 4.79767E-06 -4.78318E-07 
-2.77814E-06 4.04222E-06 -4.78318E-07 -4.11356E-06 2.67138E-06 -4.78318E-07 -4.82272E-06 8.93839E-07 -4.78318E-07 
-4.79767E-06 -1.01978E-06 -4.78318E-07 -4.04222E-06 -2.77814E-06 -4.78318E-07 -2.67138E-06 -4.11356E-06 -4.78318E-07 
-8.93839E-07 -4.82272E-06 -4.78318E-07 1.01978E-06 -4.79767E-06 -4.78318E-07 2.77814E-06 -4.04222E-06 -4.78318E-07 
4.11356E-06 -2.67138E-06 -4.78318E-07 4.82272E-06 -8.93839E-07 -4.78318E-07 4.79767E-06 1.01978E-06 -4.78318E-07 
4.04222E-06 2.77814E-06 -4.78318E-07 2.67138E-06 4.11356E-06 -4.78318E-07 8.93839E-07 4.82272E-06 -4.78318E-07 
-1.03956E-06 4.89074E-06 -1.08596E-21 -2.83203E-06 4.12063E-06 -9.14964E-22 -4.19335E-06 2.72320E-06 -6.04671E-22 
-4.91627E-06 9.11178E-07 -2.02322E-22 -4.89074E-06 -1.03956E-06 2.30828E-22 -4.12063E-06 -2.83203E-06 6.28837E-22 
-2.72320E-06 -4.19335E-06 9.31111E-22 -9.11178E-07 -4.91627E-06 1.09163E-21 1.03956E-06 -4.89074E-06 1.08596E-21 
2.83203E-06 -4.12063E-06 9.14964E-22 4.19335E-06 -2.72320E-06 6.04671E-22 4.91627E-06 -9.11178E-07 2.02322E-22 
4.89074E-06 1.03956E-06 -2.30828E-22 4.12063E-06 2.83203E-06 -6.28837E-22 2.72320E-06 4.19335E-06 -9.31111E-22 
9.11178E-07 4.91627E-06 -1.09163E-21 -1.01978E-06 4.79767E-06 4.78318E-07 -2.77814E-06 4.04222E-06 4.78318E-07 
-4.11356E-06 2.67138E-06 4.78318E-07 -4.82272E-06 8.93839E-07 4.78318E-07 -4.79767E-06 -1.01978E-06 4.78318E-07 
-4.04222E-06 -2.77814E-06 4.78318E-07 -2.67138E-06 -4.11356E-06 4.78318E-07 -8.93839E-07 -4.82272E-06 4.78318E-07 
1.01978E-06 -4.79767E-06 4.78318E-07 2.77814E-06 -4.04222E-06 4.78318E-07 4.11356E-06 -2.67138E-06 4.78318E-07 
4.82272E-06 -8.93839E-07 4.78318E-07 4.79767E-06 1.01978E-06 4.78318E-07 4.04222E-06 2.77814E-06 4.78318E-07 
2.67138E-06 4.11356E-06 4.78318E-07 8.93839E-07 4.82272E-06 4.78318E-07 -9.63444E-07 4.53265E-06 8.83817E-07 
-2.62468E-06 3.81893E-06 8.83817E-07 -3.88632E-06 2.52381E-06 8.83817E-07 -4.55632E-06 8.44463E-07 8.83817E-07 
-4.53265E-06 -9.63444E-07 8.83817E-07 -3.81893E-06 -2.62468E-06 8.83817E-07 -2.52381E-06 -3.88632E-06 8.83817E-07 
-8.44463E-07 -4.55632E-06 8.83817E-07 9.63444E-07 -4.53265E-06 8.83817E-07 2.62468E-06 -3.81893E-06 8.83817E-07 
3.88632E-06 -2.52381E-06 8.83817E-07 4.55632E-06 -8.44463E-07 8.83817E-07 4.53265E-06 9.63444E-07 8.83817E-07 
3.81893E-06 2.62468E-06 8.83817E-07 2.52381E-06 3.88632E-06 8.83817E-07 8.44463E-07 4.55632E-06 8.83817E-07 
-8.79136E-07 4.13601E-06 1.15476E-06 -2.39500E-06 3.48475E-06 1.15476E-06 -3.54624E-06 2.30296E-06 1.15476E-06 
-4.15761E-06 7.70567E-07 1.15476E-06 -4.13601E-06 -8.79136E-07 1.15476E-06 -3.48475E-06 -2.39500E-06 1.15476E-06 
-2.30296E-06 -3.54624E-06 1.15476E-06 -7.70567E-07 -4.15761E-06 1.15476E-06 8.79136E-07 -4.13601E-06 1.15476E-06 
2.39500E-06 -3.48475E-06 1.15476E-06 3.54624E-06 -2.30296E-06 1.15476E-06 4.15761E-06 -7.70567E-07 1.15476E-06 
4.13601E-06 8.79136E-07 1.15476E-06 3.48475E-06 2.39500E-06 1.15476E-06 2.30296E-06 3.54624E-06 1.15476E-06 
7.70567E-07 4.15761E-06 1.15476E-06 -7.79688E-07 3.66815E-06 1.24991E-06 -2.12408E-06 3.09055E-06 1.24991E-06 
-3.14509E-06 2.04245E-06 1.24991E-06 -3.68730E-06 6.83400E-07 1.24991E-06 -3.66815E-06 -7.79688E-07 1.24991E-06 
-3.09055E-06 -2.12408E-06 1.24991E-06 -2.04245E-06 -3.14509E-06 1.24991E-06 -6.83400E-07 -3.68730E-06 1.24991E-06 
7.79688E-07 -3.66815E-06 1.24991E-06 2.12408E-06 -3.09055E-06 1.24991E-06 3.14509E-06 -2.04245E-06 1.24991E-06 
3.68730E-06 -6.83400E-07 1.24991E-06 3.66815E-06 7.79688E-07 1.24991E-06 3.09055E-06 2.12408E-06 1.24991E-06 
2.04245E-06 3.14509E-06 1.24991E-06 6.83400E-07 3.68730E-06 1.24991E-06 -6.80240E-07 3.20028E-06 1.15476E-06 
-1.85315E-06 2.69636E-06 1.15476E-06 -2.74394E-06 1.78194E-06 1.15476E-06 -3.21699E-06 5.96234E-07 1.15476E-06 
-3.20028E-06 -6.80240E-07 1.15476E-06 -2.69636E-06 -1.85315E-06 1.15476E-06 -1.78194E-06 -2.74394E-06 1.15476E-06 
-5.96234E-07 -3.21699E-06 1.15476E-06 6.80240E-07 -3.20028E-06 1.15476E-06 1.85315E-06 -2.69636E-06 1.15476E-06 
2.74394E-06 -1.78194E-06 1.15476E-06 3.21699E-06 -5.96234E-07 1.15476E-06 3.20028E-06 6.80240E-07 1.15476E-06 
2.69636E-06 1.85315E-06 1.15476E-06 1.78194E-06 2.74394E-06 1.15476E-06 5.96234E-07 3.21699E-06 1.15476E-06 
-2.40386E-06 1.56109E-06 8.83817E-07 -1.56109E-06 -2.40386E-06 8.83817E-07 2.40386E-06 -1.56109E-06 8.83817E-07 
1.56109E-06 2.40386E-06 8.83817E-07 5.22337E-07 2.81828E-06 8.83817E-07 -5.95932E-07 2.80364E-06 8.83817E-07 
0.00000E+00 2.86628E-06 -8.83817E-07 -1.09688E-06 2.64809E-06 -8.83817E-07 -2.02676E-06 2.02676E-06 -8.83817E-07 
-2.64809E-06 1.09688E-06 -8.83817E-07 -2.86628E-06 -3.71756E-22 -8.83817E-07 -2.64809E-06 -1.09688E-06 -8.83817E-07 
-2.02676E-06 -2.02676E-06 -8.83817E-07 -1.09688E-06 -2.64809E-06 -8.83817E-07 0.00000E+00 -2.86628E-06 -8.83817E-07 
1.09688E-06 -2.64809E-06 -8.83817E-07 2.02676E-06 -2.02676E-06 -8.83817E-07 2.64809E-06 -1.09688E-06 -8.83817E-07 
2.86628E-06 -3.71756E-22 -8.83817E-07 2.64809E-06 1.09688E-06 -8.83817E-07 2.02676E-06 2.02676E-06 -8.83817E-07 
1.09688E-06 2.64809E-06 -8.83817E-07 0.00000E+00 3.27178E-06 -1.15476E-06 -1.25205E-06 3.02273E-06 -1.15476E-06 
-2.31349E-06 2.31349E-06 -1.15476E-06 -3.02273E-06 1.25205E-06 -1.15476E-06 -3.27178E-06 -4.56747E-22 -1.15476E-06 
-3.02273E-06 -1.25205E-06 -1.15476E-06 -2.31349E-06 -2.31349E-06 -1.15476E-06 -1.25205E-06 -3.02273E-06 -1.15476E-06 
0.00000E+00 -3.27178E-06 -1.15476E-06 1.25205E-06 -3.02273E-06 -1.15476E-06 2.31349E-06 -2.31349E-06 -1.15476E-06 
3.02273E-06 -1.25205E-06 -1.15476E-06 3.27178E-06 -4.56747E-22 -1.15476E-06 3.02273E-06 1.25205E-06 -1.15476E-06 
2.31349E-06 2.31349E-06 -1.15476E-06 1.25205E-06 3.02273E-06 -1.15476E-06 0.00000E+00 3.75009E-06 -1.24991E-06 
-1.43510E-06 3.46463E-06 -1.24991E-06 -2.65172E-06 2.65172E-06 -1.24991E-06 -3.46463E-06 1.43510E-06 -1.24991E-06 
-3.75009E-06 -5.07162E-22 -1.24991E-06 -3.46463E-06 -1.43510E-06 -1.24991E-06 -2.65172E-06 -2.65172E-06 -1.24991E-06 
-1.43510E-06 -3.46463E-06 -1.24991E-06 0.00000E+00 -3.75009E-06 -1.24991E-06 1.43510E-06 -3.46463E-06 -1.24991E-06 
2.65172E-06 -2.65172E-06 -1.24991E-06 3.46463E-06 -1.43510E-06 -1.24991E-06 3.75009E-06 -5.07162E-22 -1.24991E-06 
3.46463E-06 1.43510E-06 -1.24991E-06 2.65172E-06 2.65172E-06 -1.24991E-06 1.43510E-06 3.46463E-06 -1.24991E-06 
0.00000E+00 4.22841E-06 -1.15476E-06 -1.61814E-06 3.90654E-06 -1.15476E-06 -2.98994E-06 2.98994E-06 -1.15476E-06 
-3.90654E-06 1.61814E-06 -1.15476E-06 -4.22841E-06 -5.15324E-22 -1.15476E-06 -3.90654E-06 -1.61814E-06 -1.15476E-06 
-2.98994E-06 -2.98994E-06 -1.15476E-06 -1.61814E-06 -3.90654E-06 -1.15476E-06 0.00000E+00 -4.22841E-06 -1.15476E-06 
1.61814E-06 -3.90654E-06 -1.15476E-06 2.98994E-06 -2.98994E-06 -1.15476E-06 3.90654E-06 -1.61814E-06 -1.15476E-06 
4.22841E-06 -5.15324E-22 -1.15476E-06 3.90654E-06 1.61814E-06 -1.15476E-06 2.98994E-06 2.98994E-06 -1.15476E-06 
1.61814E-06 3.90654E-06 -1.15476E-06 0.00000E+00 4.63391E-06 -8.83817E-07 -1.77332E-06 4.28118E-06 -8.83817E-07 
-3.27667E-06 3.27667E-06 -8.83817E-07 -4.28118E-06 1.77332E-06 -8.83817E-07 -4.63391E-06 -4.79992E-22 -8.83817E-07 
-4.28118E-06 -1.77332E-06 -8.83817E-07 -3.27667E-06 -3.27667E-06 -8.83817E-07 -1.77332E-06 -4.28118E-06 -8.83817E-07 
0.00000E+00 -4.63391E-06 -8.83817E-07 1.77332E-06 -4.28118E-06 -8.83817E-07 3.27667E-06 -3.27667E-06 -8.83817E-07 
4.28118E-06 -1.77332E-06 -8.83817E-07 4.63391E-06 -4.79992E-22 -8.83817E-07 4.28118E-06 1.77332E-06 -8.83817E-07 
3.27667E-06 3.27667E-06 -8.83817E-07 1.77332E-06 4.28118E-06 -8.83817E-07 0.00000E+00 4.90486E-06 -4.78318E-07 
-1.87701E-06 4.53150E-06 -4.78318E-07 -3.46826E-06 3.46826E-06 -4.78318E-07 -4.53150E-06 1.87701E-06 -4.78318E-07 
-4.90486E-06 -4.06544E-22 -4.78318E-07 -4.53150E-06 -1.87701E-06 -4.78318E-07 -3.46826E-06 -3.46826E-06 -4.78318E-07 
-1.87701E-06 -4.53150E-06 -4.78318E-07 0.00000E+00 -4.90486E-06 -4.78318E-07 1.87701E-06 -4.53150E-06 -4.78318E-07 
3.46826E-06 -3.46826E-06 -4.78318E-07 4.53150E-06 -1.87701E-06 -4.78318E-07 4.90486E-06 -4.06544E-22 -4.78318E-07 
4.53150E-06 1.87701E-06 -4.78318E-07 3.46826E-06 3.46826E-06 -4.78318E-07 1.87701E-06 4.53150E-06 -4.78318E-07 
0.00000E+00 5.00000E-06 -1.11022E-21 -1.91342E-06 4.61940E-06 -1.02571E-21 -3.53553E-06 3.53553E-06 -7.85046E-22 
-4.61940E-06 1.91342E-06 -4.24864E-22 -5.00000E-06 -3.06162E-22 6.79816E-38 -4.61940E-06 -1.91342E-06 4.24864E-22 
-3.53553E-06 -3.53553E-06 7.85046E-22 -1.91342E-06 -4.61940E-06 1.02571E-21 0.00000E+00 -5.00000E-06 1.11022E-21 
1.91342E-06 -4.61940E-06 1.02571E-21 3.53553E-06 -3.53553E-06 7.85046E-22 4.61940E-06 -1.91342E-06 4.24864E-22 
5.00000E-06 -3.06162E-22 6.79816E-38 4.61940E-06 1.91342E-06 -4.24864E-22 3.53553E-06 3.53553E-06 -7.85046E-22 
1.91342E-06 4.61940E-06 -1.02571E-21 0.00000E+00 4.90486E-06 4.78318E-07 -1.87701E-06 4.53150E-06 4.78318E-07 
-3.46826E-06 3.46826E-06 4.78318E-07 -4.53150E-06 1.87701E-06 4.78318E-07 -4.90486E-06 -1.94128E-22 4.78318E-07 
-4.53150E-06 -1.87701E-06 4.78318E-07 -3.46826E-06 -3.46826E-06 4.78318E-07 -1.87701E-06 -4.53150E-06 4.78318E-07 
0.00000E+00 -4.90486E-06 4.78318E-07 1.87701E-06 -4.53150E-06 4.78318E-07 3.46826E-06 -3.46826E-06 4.78318E-07 
4.53150E-06 -1.87701E-06 4.78318E-07 4.90486E-06 -1.94128E-22 4.78318E-07 4.53150E-06 1.87701E-06 4.78318E-07 
3.46826E-06 3.46826E-06 4.78318E-07 1.87701E-06 4.53150E-06 4.78318E-07 0.00000E+00 4.63391E-06 8.83817E-07 
-1.77332E-06 4.28118E-06 8.83817E-07 -3.27667E-06 3.27667E-06 8.83817E-07 -4.28118E-06 1.77332E-06 8.83817E-07 
-4.63391E-06 -8.74984E-23 8.83817E-07 -4.28118E-06 -1.77332E-06 8.83817E-07 -3.27667E-06 -3.27667E-06 8.83817E-07 
-1.77332E-06 -4.28118E-06 8.83817E-07 0.00000E+00 -4.63391E-06 8.83817E-07 1.77332E-06 -4.28118E-06 8.83817E-07 
3.27667E-06 -3.27667E-06 8.83817E-07 4.28118E-06 -1.77332E-06 8.83817E-07 4.63391E-06 -8.74984E-23 8.83817E-07 
4.28118E-06 1.77332E-06 8.83817E-07 3.27667E-06 3.27667E-06 8.83817E-07 1.77332E-06 4.28118E-06 8.83817E-07 
0.00000E+00 4.22841E-06 1.15476E-06 -1.61814E-06 3.90654E-06 1.15476E-06 -2.98994E-06 2.98994E-06 1.15476E-06 
-3.90654E-06 1.61814E-06 1.15476E-06 -4.22841E-06 -2.50673E-24 1.15476E-06 -3.90654E-06 -1.61814E-06 1.15476E-06 
-2.98994E-06 -2.98994E-06 1.15476E-06 -1.61814E-06 -3.90654E-06 1.15476E-06 0.00000E+00 -4.22841E-06 1.15476E-06 
1.61814E-06 -3.90654E-06 1.15476E-06 2.98994E-06 -2.98994E-06 1.15476E-06 3.90654E-06 -1.61814E-06 1.15476E-06 
4.22841E-06 -2.50673E-24 1.15476E-06 3.90654E-06 1.61814E-06 1.15476E-06 2.98994E-06 2.98994E-06 1.15476E-06 
1.61814E-06 3.90654E-06 1.15476E-06 0.00000E+00 3.75009E-06 1.24991E-06 -1.43510E-06 3.46463E-06 1.24991E-06 
-2.65172E-06 2.65172E-06 1.24991E-06 -3.46463E-06 1.43510E-06 1.24991E-06 -3.75009E-06 4.79079E-23 1.24991E-06 
-3.46463E-06 -1.43510E-06 1.24991E-06 -2.65172E-06 -2.65172E-06 1.24991E-06 -1.43510E-06 -3.46463E-06 1.24991E-06 
0.00000E+00 -3.75009E-06 1.24991E-06 1.43510E-06 -3.46463E-06 1.24991E-06 2.65172E-06 -2.65172E-06 1.24991E-06 
3.46463E-06 -1.43510E-06 1.24991E-06 3.75009E-06 4.79079E-23 1.24991E-06 3.46463E-06 1.43510E-06 1.24991E-06 
2.65172E-06 2.65172E-06 1.24991E-06 1.43510E-06 3.46463E-06 1.24991E-06 0.00000E+00 3.27178E-06 1.15476E-06 
-1.25205E-06 3.02273E-06 1.15476E-06 -2.31349E-06 2.31349E-06 1.15476E-06 -3.02273E-06 1.25205E-06 1.15476E-06 
-3.27178E-06 5.60704E-23 1.15476E-06 -3.02273E-06 -1.25205E-06 1.15476E-06 -2.31349E-06 -2.31349E-06 1.15476E-06 
-1.25205E-06 -3.02273E-06 1.15476E-06 0.00000E+00 -3.27178E-06 1.15476E-06 1.25205E-06 -3.02273E-06 1.15476E-06 
2.31349E-06 -2.31349E-06 1.15476E-06 3.02273E-06 -1.25205E-06 1.15476E-06 3.27178E-06 5.60704E-23 1.15476E-06 
3.02273E-06 1.25205E-06 1.15476E-06 2.31349E-06 2.31349E-06 1.15476E-06 1.25205E-06 3.02273E-06 1.15476E-06 
0.00000E+00 2.86628E-06 8.83817E-07 -1.09688E-06 2.64809E-06 8.83817E-07 -2.02676E-06 2.02676E-06 8.83817E-07 
-2.64809E-06 1.09688E-06 8.83817E-07 -2.86628E-06 2.07380E-23 8.83817E-07 -2.64809E-06 -1.09688E-06 8.83817E-07 
-2.02676E-06 -2.02676E-06 8.83817E-07 -1.09688E-06 -2.64809E-06 8.83817E-07 0.00000E+00 -2.86628E-06 8.83817E-07 
1.09688E-06 -2.64809E-06 8.83817E-07 2.02676E-06 -2.02676E-06 8.83817E-07 2.64809E-06 -1.09688E-06 8.83817E-07 
2.86628E-06 2.07380E-23 8.83817E-07 2.64809E-06 1.09688E-06 8.83817E-07 2.02676E-06 2.02676E-06 8.83817E-07 
1.09688E-06 2.64809E-06 8.83817E-07 
CELLS 1 3234
3233 808 3 0 198 200 3 0 200 199 3 0 199 215 3 0 215 16 3 0 16 198 3 1 200 17 3 1 199 200 3 1 17 199 3 2 10 6 3 2 18 200 3 2 14 10 3 2 200 198 3 2 198 14 3 2 202 3 3 2 201 217 3 2 217 18 3 2 6 202 3 2 3 201 3 3 202 19 3 3 217 201 3 3 19 217 3 4 204 203 3 4 20 202 3 4 202 204 3 4 203 219 3 4 219 20 3 5 203 204 3 5 204 21 3 5 21 203 3 6 22 204 3 6 204 202 3 6 205 221 3 6 221 22 3 6 10 206 3 6 206 7 3 6 7 205 3 7 221 205 3 7 23 221 3 7 206 23 3 8 206 208 3 8 208 207 3 8 24 206 3 8 207 223 3 8 223 24 3 9 207 208 3 9 208 25 3 9 25 207 3 10 208 206 3 10 26 208 3 10 209 225 3 10 225 26 3 10 14 210 3 10 11 209 3 10 210 11 3 11 225 209 3 11 27 225 3 11 210 27 3 12 211 227 3 12 227 28 3 12 212 211 3 12 210 212 3 12 28 210 3 13 212 29 3 13 29 211 3 13 211 212 3 14 198 15 3 14 212 210 3 14 213 229 3 14 229 30 3 14 30 212 3 14 15 213 3 15 229 213 3 15 31 229 3 15 198 31 3 16 231 32 3 16 32 214 3 16 214 198 3 16 215 231 3 17 200 216 3 17 33 215 3 17 215 199 3 17 216 33 3 18 233 34 3 18 217 233 3 18 216 200 3 18 232 216 3 18 34 232 3 19 233 217 3 19 35 233 3 19 202 218 3 19 218 35 3 20 36 218 3 20 218 202 3 20 235 36 3 20 219 235 3 21 204 220 3 21 37 219 3 21 219 203 3 21 220 37 3 22 237 38 3 22 221 237 3 22 220 204 3 22 236 220 3 22 38 236 3 23 237 221 3 23 39 237 3 23 206 222 3 23 222 39 3 24 40 222 3 24 239 40 3 24 222 206 3 24 223 239 3 25 41 223 3 25 208 224 3 25 223 207 3 25 224 41 3 26 224 208 3 26 241 42 3 26 225 241 3 26 240 224 3 26 42 240 3 27 241 225 3 27 43 241 3 27 210 226 3 27 226 43 3 28 44 226 3 28 226 210 3 28 243 44 3 28 227 243 3 29 45 227 3 29 212 228 3 29 228 45 3 29 227 211 3 30 228 212 3 30 245 46 3 30 229 245 3 30 244 228 3 30 46 244 3 31 245 229 3 31 47 245 3 31 214 47 3 31 198 214 3 32 231 247 3 32 247 48 3 32 230 214 3 32 48 230 3 33 232 49 3 33 49 231 3 33 231 215 3 33 216 232 3 34 249 50 3 34 233 249 3 34 50 248 3 34 248 232 3 35 234 51 3 35 51 249 3 35 218 234 3 35 249 233 3 36 251 52 3 36 234 218 3 36 235 251 3 36 52 234 3 37 236 53 3 37 53 235 3 37 235 219 3 37 220 236 3 38 253 54 3 38 237 253 3 38 54 252 3 38 252 236 3 39 55 253 3 39 238 55 3 39 222 238 3 39 253 237 3 40 255 56 3 40 238 222 3 40 239 255 3 40 56 238 3 41 240 57 3 41 57 239 3 41 239 223 3 41 224 240 3 42 257 58 3 42 241 257 3 42 58 256 3 42 256 240 3 43 59 257 3 43 242 59 3 43 226 242 3 43 257 241 3 44 242 226 3 44 243 259 3 44 259 60 3 44 60 242 3 45 244 61 3 45 243 227 3 45 61 243 3 45 228 244 3 46 261 62 3 46 245 261 3 46 62 260 3 46 260 244 3 47 214 230 3 47 230 63 3 47 63 261 3 47 261 245 3 48 247 64 3 48 246 230 3 48 64 262 3 48 262 246 3 49 232 248 3 49 247 231 3 49 65 247 3 49 264 65 3 49 248 264 3 50 264 248 3 50 66 264 3 50 249 66 3 51 265 249 3 51 67 265 3 51 266 67 3 51 250 266 3 51 234 250 3 52 251 68 3 52 250 234 3 52 68 266 3 52 266 250 3 53 236 252 3 53 251 235 3 53 69 251 3 53 268 69 3 53 252 268 3 54 268 252 3 54 70 268 3 54 253 70 3 55 269 253 3 55 71 269 3 55 270 71 3 55 254 270 3 55 238 254 3 56 255 72 3 56 254 238 3 56 72 270 3 56 270 254 3 57 240 256 3 57 255 239 3 57 73 255 3 57 272 73 3 57 256 272 3 58 272 256 3 58 74 272 3 58 257 74 3 59 273 257 3 59 75 273 3 59 274 75 3 59 258 274 3 59 242 258 3 60 258 242 3 60 76 274 3 60 259 76 3 60 274 258 3 61 259 243 3 61 77 259 3 61 244 260 3 61 276 77 3 61 260 276 3 62 261 78 3 62 276 260 3 62 78 276 3 63 277 261 3 63 79 277 3 63 230 246 3 63 262 79 3 63 246 262 3 64 80 278 3 64 247 263 3 64 263 80 3 64 278 262 3 65 263 247 3 65 279 263 3 65 81 279 3 65 264 81 3 66 281 82 3 66 265 281 3 66 82 264 3 66 249 265 3 67 282 83 3 67 266 282 3 67 83 265 3 68 251 267 3 68 84 282 3 68 267 84 3 68 282 266 3 69 267 251 3 69 283 267 3 69 85 283 3 69 268 85 3 70 285 86 3 70 269 285 3 70 86 268 3 70 253 269 3 71 286 87 3 71 270 286 3 71 87 269 3 72 255 271 3 72 88 286 3 72 271 88 3 72 286 270 3 73 271 255 3 73 287 271 3 73 89 287 3 73 272 89 3 74 289 90 3 74 273 289 3 74 90 272 3 74 257 273 3 75 290 91 3 75 274 290 3 75 91 273 3 76 92 290 3 76 275 92 3 76 259 275 3 76 290 274 3 77 291 275 3 77 275 259 3 77 93 291 3 77 276 93 3 78 261 277 3 78 94 276 3 78 293 94 3 78 277 293 3 79 278 95 3 79 262 278 3 79 95 277 3 80 295 96 3 80 96 278 3 80 279 295 3 80 263 279 3 81 280 97 3 81 97 279 3 81 264 280 3 82 98 280 3 82 280 264 3 82 281 98 3 83 281 265 3 83 298 99 3 83 282 298 3 83 297 281 3 83 99 297 3 84 100 282 3 84 299 100 3 84 283 299 3 84 267 283 3 85 101 283 3 85 284 101 3 85 268 284 3 86 102 284 3 86 285 102 3 86 284 268 3 87 285 269 3 87 302 103 3 87 286 302 3 87 301 285 3 87 103 301 3 88 104 286 3 88 303 104 3 88 287 303 3 88 271 287 3 89 288 105 3 89 105 287 3 89 272 288 3 90 106 288 3 90 288 272 3 90 289 106 3 91 289 273 3 91 306 107 3 91 290 306 3 91 305 289 3 91 107 305 3 92 108 290 3 92 291 307 3 92 307 108 3 92 275 291 3 93 292 109 3 93 109 291 3 93 276 292 3 94 110 292 3 94 292 276 3 94 293 110 3 95 294 111 3 95 278 294 3 95 293 277 3 95 309 293 3 95 111 309 3 96 294 278 3 96 310 294 3 96 112 310 3 96 295 112 3 97 312 113 3 97 295 279 3 97 311 295 3 97 113 311 3 97 296 312 3 97 280 296 3 98 296 280 3 98 312 296 3 98 114 312 3 98 313 114 3 98 297 313 3 98 281 297 3 99 115 297 3 99 298 115 3 100 298 282 3 100 314 298 3 100 116 314 3 100 299 116 3 101 316 117 3 101 299 283 3 101 315 299 3 101 117 315 3 101 300 316 3 101 284 300 3 102 317 118 3 102 301 317 3 102 316 300 3 102 118 316 3 102 300 284 3 102 285 301 3 103 302 119 3 103 119 301 3 104 302 286 3 104 318 302 3 104 120 318 3 104 303 120 3 105 320 121 3 105 303 287 3 105 319 303 3 105 121 319 3 105 304 320 3 105 288 304 3 106 304 288 3 106 320 304 3 106 122 320 3 106 321 122 3 106 305 321 3 106 289 305 3 107 123 305 3 107 306 123 3 108 306 290 3 108 322 306 3 108 124 322 3 108 307 124 3 109 324 125 3 109 323 307 3 109 125 323 3 109 307 291 3 109 308 324 3 109 292 308 3 110 308 292 3 110 324 308 3 110 126 324 3 110 325 126 3 110 309 325 3 110 293 309 3 111 294 127 3 111 127 309 3 112 327 128 3 112 311 327 3 112 295 311 3 112 128 310 3 113 328 129 3 113 312 328 3 113 129 311 3 114 313 130 3 114 328 312 3 114 130 328 3 115 313 297 3 115 298 314 3 115 329 313 3 115 131 329 3 115 314 131 3 116 331 132 3 116 315 331 3 116 132 314 3 116 299 315 3 117 316 332 3 117 332 133 3 117 133 315 3 118 332 316 3 118 317 134 3 118 134 332 3 119 302 318 3 119 317 301 3 119 333 317 3 119 135 333 3 119 318 135 3 120 335 136 3 120 319 335 3 120 136 318 3 120 303 319 3 121 336 137 3 121 320 336 3 121 137 319 3 122 321 138 3 122 336 320 3 122 138 336 3 123 321 305 3 123 306 322 3 123 337 321 3 123 139 337 3 123 322 139 3 124 339 140 3 124 323 339 3 124 140 322 3 124 307 323 3 125 340 141 3 125 324 340 3 125 141 323 3 126 325 142 3 126 340 324 3 126 142 340 3 127 310 143 3 127 294 310 3 127 341 325 3 127 143 341 3 127 325 309 3 128 343 144 3 128 327 343 3 128 326 310 3 128 144 326 3 129 343 327 3 129 145 343 3 129 328 145 3 129 327 311 3 130 146 328 3 130 313 329 3 130 345 146 3 130 329 345 3 131 147 329 3 131 330 147 3 131 314 330 3 132 330 314 3 132 347 148 3 132 331 347 3 132 148 330 3 133 332 149 3 133 149 347 3 133 347 331 3 133 331 315 3 134 150 332 3 134 349 150 3 134 333 349 3 134 317 333 3 135 151 333 3 135 334 151 3 135 318 334 3 136 334 318 3 136 351 152 3 136 335 351 3 136 152 334 3 137 336 153 3 137 153 351 3 137 351 335 3 137 335 319 3 138 154 336 3 138 353 154 3 138 337 353 3 138 321 337 3 139 155 337 3 139 338 155 3 139 322 338 3 140 355 156 3 140 339 355 3 140 338 322 3 140 156 338 3 141 157 355 3 141 340 157 3 141 355 339 3 141 339 323 3 142 357 158 3 142 341 357 3 142 158 340 3 142 325 341 3 143 310 326 3 143 326 159 3 143 159 341 3 144 358 342 3 144 160 358 3 144 343 160 3 144 342 326 3 145 360 161 3 145 344 360 3 145 161 359 3 145 359 343 3 145 328 344 3 146 344 328 3 146 162 344 3 146 345 162 3 147 345 329 3 147 163 345 3 147 330 346 3 147 362 163 3 147 346 362 3 148 362 346 3 148 164 362 3 148 347 164 3 148 346 330 3 149 364 165 3 149 348 364 3 149 165 363 3 149 332 348 3 149 363 347 3 150 348 332 3 150 166 348 3 150 349 166 3 151 349 333 3 151 167 349 3 151 334 350 3 151 366 167 3 151 350 366 3 152 366 350 3 152 168 366 3 152 351 168 3 152 350 334 3 153 368 169 3 153 352 368 3 153 169 367 3 153 336 352 3 153 367 351 3 154 352 336 3 154 170 352 3 154 353 170 3 155 171 353 3 155 353 337 3 155 370 171 3 155 354 370 3 155 338 354 3 156 370 354 3 156 172 370 3 156 354 338 3 156 355 172 3 157 372 173 3 157 356 372 3 157 173 371 3 157 371 355 3 157 340 356 3 158 356 340 3 158 174 356 3 158 357 174 3 159 358 175 3 159 342 358 3 159 175 357 3 159 326 342 3 159 357 341 3 160 374 358 3 160 176 374 3 160 343 359 3 160 359 176 3 161 360 376 3 161 177 375 3 161 375 359 3 161 376 177 3 162 360 344 3 162 361 178 3 162 345 361 3 162 178 360 3 163 378 179 3 163 362 378 3 163 361 345 3 163 179 361 3 164 378 362 3 164 180 378 3 164 347 363 3 164 363 180 3 165 364 380 3 165 181 379 3 165 379 363 3 165 380 181 3 166 364 348 3 166 365 182 3 166 349 365 3 166 182 364 3 167 382 183 3 167 366 382 3 167 365 349 3 167 183 365 3 168 382 366 3 168 184 382 3 168 351 367 3 168 367 184 3 169 368 384 3 169 185 383 3 169 383 367 3 169 384 185 3 170 368 352 3 170 369 186 3 170 353 369 3 170 186 368 3 171 386 187 3 171 370 386 3 171 369 353 3 171 187 369 3 172 386 370 3 172 188 386 3 172 355 371 3 172 371 188 3 173 372 388 3 173 189 387 3 173 387 371 3 173 388 189 3 174 357 373 3 174 373 190 3 174 372 356 3 174 190 372 3 175 191 373 3 175 374 191 3 175 358 374 3 175 373 357 3 176 390 374 3 176 197 390 3 176 375 197 3 176 359 375 3 177 376 392 3 177 392 391 3 177 391 375 3 178 192 392 3 178 361 377 3 178 376 360 3 178 377 192 3 178 392 376 3 179 393 377 3 179 378 394 3 179 394 393 3 179 377 361 3 180 394 378 3 180 395 394 3 180 379 395 3 180 363 379 3 181 396 395 3 181 380 396 3 181 395 379 3 182 193 396 3 182 365 381 3 182 380 364 3 182 381 193 3 182 396 380 3 183 397 381 3 183 382 398 3 183 398 397 3 183 381 365 3 184 399 398 3 184 398 382 3 184 383 399 3 184 367 383 3 185 400 399 3 185 384 400 3 185 399 383 3 186 194 400 3 186 369 385 3 186 384 368 3 186 385 194 3 186 400 384 3 187 402 401 3 187 401 385 3 187 385 369 3 187 386 402 3 188 402 386 3 188 403 402 3 188 387 403 3 188 371 387 3 189 388 404 3 189 404 403 3 189 403 387 3 190 195 404 3 190 389 195 3 190 373 389 3 190 388 372 3 190 404 388 3 191 389 373 3 191 196 389 3 191 390 196 3 191 374 390 3 192 393 394 3 192 195 390 3 192 193 194 3 192 394 193 3 192 194 195 3 192 377 393 3 192 390 392 3 193 397 398 3 193 398 194 3 193 394 396 3 193 381 397 3 194 401 402 3 194 402 195 3 194 385 401 3 194 398 400 3 195 389 405 3 195 196 390 3 195 402 404 3 195 405 196 3 196 405 389 3 197 375 391 3 197 391 392 3 197 392 390 3 394 395 396 3 398 399 400 3 402 403 404 

CELL_TYPES 1
42

CELL_DATA 1
FIELD FieldData 2
Cell_id 1 1 int
1
METADATA
INFORMATION 0

Cell_type_id 1 1 int
0
METADATA
INFORMATION 0

