<VTKFile type="UnstructuredGrid" version="1.0" byte_order="LittleEndian" header_type="UInt64">
  <UnstructuredGrid>
    <FieldData>
      <DataArray type="Float64" Name="TimeValue" NumberOfTuples="1" format="ascii" RangeMin="14" RangeMax="14">
        14
      </DataArray>
    </FieldData>
    <Piece NumberOfPoints="287" NumberOfCells="2">
      <PointData>
        <DataArray type="Int64" IdType="1" Name="vtkOriginalPointIds" format="ascii" RangeMin="277" RangeMax="563">
          277 278 279 280 281 282
          283 284 285 286 287 288
          289 290 291 292 293 294
          295 296 297 298 299 300
          301 302 303 304 305 306
          307 308 309 310 311 312
          313 314 315 316 317 318
          319 320 321 322 323 324
          325 326 327 328 329 330
          331 332 333 334 335 336
          337 338 339 340 341 342
          343 344 345 346 347 348
          349 350 351 352 353 354
          355 356 357 358 359 360
          361 362 363 364 365 366
          367 368 369 370 371 372
          373 374 375 376 377 378
          379 380 381 382 383 384
          385 386 387 388 389 390
          391 392 393 394 395 396
          397 398 399 400 401 402
          403 404 405 406 407 408
          409 410 411 412 413 414
          415 416 417 418 419 420
          421 422 423 424 425 426
          427 428 429 430 431 432
          433 434 435 436 437 438
          439 440 441 442 443 444
          445 446 447 448 449 450
          451 452 453 454 455 456
          457 458 459 460 461 462
          463 464 465 466 467 468
          469 470 471 472 473 474
          475 476 477 478 479 480
          481 482 483 484 485 486
          487 488 489 490 491 492
          493 494 495 496 497 498
          499 500 501 502 503 504
          505 506 507 508 509 510
          511 512 513 514 515 516
          517 518 519 520 521 522
          523 524 525 526 527 528
          529 530 531 532 533 534
          535 536 537 538 539 540
          541 542 543 544 545 546
          547 548 549 550 551 552
          553 554 555 556 557 558
          559 560 561 562 563
        </DataArray>
      </PointData>
      <CellData>
        <DataArray type="Int32" Name="cell_id" format="ascii" RangeMin="2" RangeMax="3">
          2 3
        </DataArray>
        <DataArray type="Int32" Name="cell_type_id" format="ascii" RangeMin="0" RangeMax="0">
          0 0
        </DataArray>
        <DataArray type="Float32" Name="cell_area" format="ascii" RangeMin="1.2099999890935464e-9" RangeMax="1.2119999448501062e-9">
          1.21e-9 1.212e-9
        </DataArray>
        <DataArray type="Float32" Name="cell_volume" format="ascii" RangeMin="3.907999954460423e-15" RangeMax="3.9089998768546564e-15">
          3.908e-15 3.909e-15
        </DataArray>
        <DataArray type="Float32" Name="cell_pressure" format="ascii" RangeMin="-304.70001220703125" RangeMax="57.060001373291016">
          57.06 -304.7
        </DataArray>
        <DataArray type="Float32" Name="cell_growth_rate" format="ascii" RangeMin="0" RangeMax="0">
          0 0
        </DataArray>
        <DataArray type="Float32" Name="cell_division_vol" format="ascii" RangeMin="1.8999999327768552e-14" RangeMax="1.8999999327768552e-14">
          1.9e-14 1.9e-14
        </DataArray>
        <DataArray type="Int32" Name="cell_is_static" format="ascii" RangeMin="0" RangeMax="0">
          0 0
        </DataArray>
        <DataArray type="Float32" Name="target_volume" format="ascii" RangeMin="3.903999841367014e-15" RangeMax="3.9089998768546564e-15">
          3.909e-15 3.904e-15
        </DataArray>
        <DataArray type="Int64" IdType="1" Name="vtkOriginalCellIds" format="ascii" RangeMin="2" RangeMax="3">
          2 3
        </DataArray>
      </CellData>
      <Points>
        <DataArray type="Float32" Name="Points" NumberOfComponents="3" format="ascii" RangeMin="0.0000015671095883644421" RangeMax="0.000019682449172183076">
          0.000017855002 -0.0000049767 0.0000019094 0.000015907 -0.0000076317 -0.00000451935
          0.000008813 0.0000026150997 0.00000885 0.000017996 -0.0000049319 -0.00000456748
          0.000017472 -0.000006689 -0.0000014623001 0.0000081052 -0.0000089715995 0.0000024462997
          0.000015638001 -0.0000058794 -0.0000071996 0.000017274 -0.000002986312 -0.0000072991
          0.000018796001 0.0000020005 -0.0000044486 0.00001553 0.0000059508 -0.00000606107
          0.000012986 0.0000074459995 -0.00000619721 0.000003765 -3.0040007e-7 -0.0000088465
          0.000016819 0.0000046351997 0.0000045799998 0.000017519 0.0000052139003 -0.0000039084
          0.000015224 0.000007725 -0.0000032833 0.0000122083 0.000009284 -0.0000029952
          0.000013208 -0.0000094002 -0.0000041403 0.000019197001 -0.0000033524 -0.0000012609999
          0.000017063001 0.000006473 -3.026002e-7 0.000014093 0.000008829 9.589989e-8
          0.0000087739 0.000009488 -0.0000027194 0.0000058771 0.000008565999 -0.0000024343
          0.000018579001 0.0000035868998 0.0000013878998 0.000019028 -0.0000013909 0.0000020305001
          0.000015118 -0.0000087803 -0.0000020063 0.000015371 0.000007328 0.0000029364
          0.0000120907 0.00000877 0.000003401 0.0000105864 0.000009731 2.6899994e-7
          0.000019104002 -0.0000014794 -0.0000044997 0.000015337 -0.0000080218 0.0000012644
          0.000015411 -0.0000061343 0.0000044148 0.000017462 -0.0000011326999 0.0000053149997
          0.000012788 -0.0000098115 -8.2850005e-7 0.000011915 -0.0000089563 0.0000024761002
          0.000013533 0.0000064435 0.000005983 0.0000085363 0.000008959 0.000003178
          0.0000102874 -0.0000041877 0.000007785 0.00000310588 0.000006597 -8.5330015e-7
          0.0000149219995 1.3539999e-7 0.000007805 0.0000052235 0.000008022 0.0000021
          0.0000072653 0.000009304 2.2159979e-7 0.000010199 -5.851999e-7 0.000009023
          0.0000098977 0.0000074930003 0.0000059659997 0.00000348781 -0.0000044797002 0.000004718
          0.0000065094 0.0000072049997 0.00000532 0.00000313513 0.0000018928 0.000006053
          0.0000100524 -0.0000072209 0.000005357 0.0000069324 -0.0000053636 0.000006372
          0.000007325 -0.00000207563 0.000008208 0.000016689 0.0000031911 -0.0000070972
          0.0000056436 0.0000011563999 0.000007927 0.0000048524003 0.0000044453 0.0000065739996
          0.0000041216 0.0000062048002 0.0000044499 0.00000289555 0.0000060983 0.0000022220001
          0.000001654 -0.00000219064 0.0000038494 0.0000054938 -0.0000071364 0.0000038237004
          0.0000048765 -0.000008498399 4.500999e-7 0.000002483894 -0.0000065477 -0.0000016349
          0.00000230397 0.0000037606 0.0000039558 0.000017607 1.0730002e-7 -0.000007329
          0.00000337615 -0.0000011444 0.000006292 0.00001875 0.0000037412997 -0.0000016053
          0.000019517001 5.6350007e-7 -0.0000010394001 0.000015114 -0.00000339676 0.0000068010004
          0.0000122939 0.000002312 0.00000875 0.000018456001 0.0000015914999 0.0000037651998
          0.000014921 0.0000035880998 0.0000072619996 0.000017039001 -0.0000038902 0.000004593
          0.0000127309995 -0.00000216581 0.000008411 0.000012874 -0.00000573 0.000006464
          0.000014833 6.916001e-7 -0.0000094454 0.000013713 0.00000443 -0.000008675
          0.000014375 -0.00000326985 -0.0000094656 0.000016169 -0.0000013649 -0.0000087629
          0.0000078795 0.0000053943995 0.0000075569997 0.000013694 -0.0000080396 -0.00000648079
          0.000012838 -0.00000398861 0.0000076260003 0.00001306 0.0000046686 0.000007709
          0.0000052115 -0.00000311589 0.000007066 0.0000109511 0.0000051392 0.000008007
          0.0000078446 1.7009994e-7 0.00000874 0.000012894 -0.00000742 0.0000046120003
          0.000017222 0.0000056604003 0.0000022727 0.000018066 -0.00000287651 0.0000035045996
          0.0000042011998 0.0000069715998 -0.0000040447 0.0000054224 -0.0000011529 0.000007652
          0.000019160001 0.0000011594999 0.0000015845999 0.0000067446 0.0000035139 0.000007988
          0.0000124895 -8.380005e-8 0.000008787 0.000016975 0.0000018861002 0.000006149
          0.00000227513 0.0000043242 -0.0000041695 0.0000102615995 0.0000044788 -0.0000096709
          0.0000070249 0.000007814 -0.000005587472 0.0000102546 0.000008771 -0.00000539002
          0.0000119495 0.0000021205 -0.000010565 0.0000116091 -0.0000010289001 -0.0000107367
          0.0000044807 0.0000051204997 -0.0000067806 0.0000014496001 -0.0000039340302 0.0000011910001
          0.0000052324 0.000008243 -1.3120003e-7 0.0000106628995 -0.0000043378 -0.000010367799
          0.0000102939 -0.0000101711 -0.0000029398 0.000012577 -0.0000065104 -0.0000087489
          0.0000072968 -0.0000099678 -0.0000012005003 0.00000176985 4.9490006e-7 0.0000045099996
          0.0000105304 -0.0000088768 -0.0000065428 0.0000049061 -0.0000088599 -0.0000029385
          0.000014028 -0.0000078061 0.0000032728003 0.0000100512 0.000007165 -0.0000076352
          0.0000074718 -0.0000073951 0.000004605 0.00000202308 -0.00000200787 -0.00000631294
          8.082e-7 -0.0000017825 -0.0000032255 0.0000074018 0.0000055652 -0.000008499
          0.0000073144997 -0.0000094783 -0.00000465506 0.00000281578 0.0000017909998 -0.0000069909
          0.0000055406 0.0000026029998 -0.0000093659 0.0000100093 -0.0000101478 -1.8998916e-9
          0.0000011778001 -0.00000378489 -0.0000034101001 0.00000221846 -0.0000049428 -0.00000551871
          7.7299995e-7 0.0000015897 0.0000015401001 0.00000316521 -0.0000064693 0.0000019070999
          0.0000093832 -0.0000068594 -0.000009056 0.0000037521 -0.0000048859 -0.000007794
          0.0000062252 -9.965e-7 -0.0000103858 0.0000076865 0.0000035261 -0.000009822
          0.0000118514 0.0000060945995 -0.0000081538 0.0000040148 -0.0000024748401 -0.0000090543
          0.0000010665001 -0.00000386814 -0.0000013856002 8.2e-7 -9.638001e-7 0.00000206
          0.0000088113 0.0000013065002 -0.0000107634 0.0000014768001 0.0000041951 9.379001e-7
          0.000006922 -0.0000046606 -0.0000098322 0.0000039711 -0.0000073851 -0.000005524375
          0.0000085917 -0.00000217598 -0.0000108328995 0.0000011267 7.6289996e-7 -0.0000043039
          0.0000012668 0.0000037859 -0.0000016394001 0.0000054568 -0.0000063239 -0.0000080455
          0.0000071482 -0.0000079495 -0.0000074397 0.000002464912 -0.0000059321 -0.0000041474
          6.3039994e-7 0.0000020941998 -0.0000019757001 6.096e-7 -7.185e-7 -0.0000014511002
          -0.000013041 0.000009109 -0.0000027694 -0.000016151998 -0.00000266737 0.0000043633
          -0.000008784 -0.0000059944 0.0000062139998 -0.000013874999 0.0000071249997 -0.000005431055
          -0.000016218999 0.0000048325 -0.0000050211 -0.000016572 0.0000070449996 1.7899997e-7
          -0.000015659 0.0000019327 -0.0000071366 -0.000011115 0.0000066634 0.000007702
          -0.0000053664 0.0000097229995 2.1120017e-7 -0.000009117 0.000010048 0.0000035074
          -0.000014122 0.000009056 2.0780003e-7 -0.000012732 0.000009266 0.0000033126998
          -0.000015447 0.000007556 0.0000028178001 -0.0000066374996 -0.0000068993 0.00000466
          -0.000014394001 -7.141999e-7 -0.0000087248 -0.000016588 -0.0000013103 -0.00000603882
          -0.000017608 0.0000018101001 -0.000004463 -0.0000053887998 0.000008925 0.0000036102
          -0.000013951 0.0000071140003 0.000005668 -0.00001265 -0.0000056288 -0.0000083878
          -0.000014889 -0.00000374931 -0.0000076147 -0.000017975999 -0.0000012083 -0.0000024743001
          -0.000018398 0.0000015707998 5.043999e-7 -0.00001025 -0.0000086785 9.217002e-7
          -0.00001118 0.000010289 9.128999e-7 -0.0000031348 0.0000041692 0.000006702
          -0.000008172 0.0000083059995 0.000006337 -0.000014263001 -0.0000063703 -0.00000604024
          -0.000016229 -0.0000045696 -0.0000042397 -0.00001713 -0.0000040942 -0.0000011300999
          -0.00001575 0.000007406 -0.0000025298 -0.0000174 0.0000022185 0.0000039213
          -0.000015598998 0.0000040614 0.000006133 -0.0000024592 0.0000064591995 0.0000039704
          -0.0000038208 -0.0000077981995 -6.247e-7 -0.0000050817002 0.0000068275003 0.0000064550004
          -0.000013447 0.0000028752997 0.000008209 -0.000015573 3.6669996e-7 0.000006419
          -0.000014079999 -0.0000074061 -0.0000034773 -0.000015701999 -0.0000062058 -0.0000014153002
          -0.000007804 0.0000057133 0.000008421 -0.0000104870005 0.0000038627 0.000009144
          -0.000017789998 0.0000044804997 -0.0000017636 -0.000008465 0.0000015410002 0.0000095469995
          -0.0000058753003 0.0000030519 0.000008774 -0.000011401 5.554001e-7 0.000009129
          -0.000015697 -0.0000053368 0.0000018195001 -0.000017471999 0.0000048538996 0.0000020078
          -0.000007775 -0.0000091209995 -0.0000020327 -0.0000034691002 8.8470017e-7 0.00000766
          -0.0000060436996 -2.846001e-7 0.000008839 -0.000008878 -0.00000172 0.000008979
          -0.000010672 -0.0000043418 0.000007363 -0.000012887999 -0.0000071933 0.0000027652995
          -0.000013598 -0.0000048188 0.000005277 -0.0000025297 0.000007768 8.0060005e-7
          -0.0000019208 -7.2110004e-7 0.000006192 -0.000004052 -0.00000273913 0.0000070300002
          -0.000010339 -0.0000070798 0.000004581 -0.0000072768 -0.0000044814 0.000007335
          -0.000011202 -0.0000018072 0.000008615 -0.000013563999 -0.0000079006995 -3.4450017e-7
          -0.000011172 0.000008694 0.000005633 -0.0000066983002 -0.0000084327 0.0000014091002
          -0.000017700999 -0.0000019001 0.0000013364001 -0.000014135 0.0000046235 -0.000007313
          -0.000013432999 0.0000053716003 0.000007492 -0.0000112200005 0.0000059024997 -0.0000080965
          -0.000013241 -0.0000018601 0.000007646 -0.000014769 -0.00000233924 0.000006184
          -0.000013598 6.0800005e-7 0.000008067 -0.000012767 0.0000023089997 -0.000009276
          -0.000017160999 -3.9569989e-7 0.0000039730003 -0.000011201 -0.0000089067 -0.0000028056
          -0.000012217 0.000009821 -7.774001e-7 -0.000008234 0.0000106 3.599999e-7
          -0.0000055114997 -0.0000075165003 -0.0000065811 -0.000012169 0.0000049039 0.000008327
          -0.000016069 0.0000057741 0.0000043221 -0.0000065059003 -0.00000242421 0.000008344
          -0.000008327 -0.000008143 0.0000028877002 -6.310999e-7 0.0000056752997 -0.0000022965
          -0.000010225 0.000010089 -0.0000021303001 -0.000008168 0.000007949 -0.0000065072
          -0.000009922 4.7390006e-7 -0.000010605399 -0.0000032982002 -0.000005369 0.0000043723003
          -0.000018404999 0.0000018555999 -0.0000020958 -0.0000048414 0.0000075669996 -0.00000572776
          -0.000012226 -3.3210006e-7 -0.0000100307 -0.000008049 0.0000036206998 0.000009213
          -0.0000012177001 -0.000002817 0.0000041311996 -0.000016851 0.0000042479 0.000004155
          -0.000017863998 4.0199996e-7 0.0000025517002 -0.0000033761999 0.000008203 -0.0000025575
          -0.0000052424 -0.0000051091 0.000006043 -0.0000039164 -0.0000070617 0.0000023553002
          -0.0000023965 0.0000012207998 -0.0000086712 -0.0000055365 0.0000051783 0.000007907
          -3.7450008e-7 0.0000054357997 0.0000012206001 -0.000012269 -0.0000077877 -0.00000590792
          3.318999e-7 -0.0000014414 9.4600006e-7 -0.0000013667999 -0.0000052134 0.0000010961999
          -3.899998e-8 -0.00000352377 -0.0000021785002 -0.0000060239 0.0000055165 -0.0000086237
          -0.0000048404 -0.0000084037 -0.0000038985 -0.000001751 -8.039e-7 -0.0000083503
          -0.0000068237005 0.000009632 -0.0000030831 -0.0000015831 0.0000017930998 0.00000595
          -0.0000021065002 0.0000060113 -0.00000510634 -0.0000018283998 -0.0000063532 -0.0000026973
          4.925001e-7 0.0000024321998 -0.000003631 -0.000011045 0.000008597 -0.00000520942
          -0.00000704 0.000010137 0.0000021666 -0.0000039613 1.08500096e-7 -0.0000099616
          -0.0000012569 0.0000027365 -0.0000069447 -0.000010655 0.0000032897997 -0.0000097405
          -0.000008775 0.0000038446997 -0.0000098049995 -0.000011984 -0.00000280813 -0.000009869
          -0.0000064185997 0.0000020919997 -0.0000103642 -0.0000035694002 0.0000031341 -0.00000903
          -0.0000096290005 -0.0000053578 -0.000009620499 -0.00000789 -0.0000070967003 -0.0000085237
          -0.0000029451003 -0.0000042213 -0.0000081323 -0.000008544 0.0000060291995 -0.000008504
          -0.0000027318001 -0.0000061755 -0.00000569781 -0.0000065812 -0.000001478 -0.0000106407
          -0.000009015 -0.00000288916 -0.0000105346 -5.460001e-7 0.0000036340998 0.0000038503003
          -7.2279994e-7 0.0000043692 -0.00000481618 -1.5680001e-7 1.1179997e-7 -0.00000613346
          -0.0000032767002 0.0000053985996 -0.0000073652 -0.000008997 0.000009352 -0.0000042625998
          -1.5530003e-7 2.610999e-7 0.0000039319 -0.000008736 -0.0000086435 -0.00000560214
          4.654999e-7 0.0000036985998 0.0000015429 -0.000006309 -0.000004934 -0.0000094956995
          5.773e-7 0.0000016025002 -1.9880004e-7 4.0900005e-7 0.0000030829 -9.86001e-8
          6.968e-7 0.0000018309998 0.0000017304001 -0.0000040873 -0.00000267008 -0.0000096189
          5.9840005e-7 -6.065999e-7 -0.0000036425 -0.0000039761003 -0.0000058735 -0.0000075745997
          -8.317001e-7 -0.0000046943 -0.0000043118 -7.0510004e-7 -0.000003021541 -0.00000599895
          -0.000010466 -0.0000072022003 -0.0000081313 -0.0000056112003 -0.0000088875995 -0.0000012656001
          6.4930003e-7 -0.0000011101 -8.954998e-7
          <InformationKey name="L2_NORM_FINITE_RANGE" location="vtkDataArray" length="2">
            <Value index="0">
              1.5671095884e-06
            </Value>
            <Value index="1">
              1.9682449172e-05
            </Value>
          </InformationKey>
          <InformationKey name="L2_NORM_RANGE" location="vtkDataArray" length="2">
            <Value index="0">
              1.5671095884e-06
            </Value>
            <Value index="1">
              1.9682449172e-05
            </Value>
          </InformationKey>
        </DataArray>
      </Points>
      <Cells>
        <DataArray type="Int64" Name="connectivity" format="ascii" RangeMin="0" RangeMax="286">
          0 1 2 3 4 5
          6 7 8 9 10 11
          12 13 14 15 16 17
          18 19 20 21 22 23
          24 25 26 27 28 29
          30 31 32 33 34 35
          36 37 38 39 40 41
          42 43 44 45 46 47
          48 49 50 51 52 53
          54 55 56 57 58 59
          60 61 62 63 64 65
          66 67 68 69 70 71
          72 73 74 75 76 77
          78 79 80 81 82 83
          84 85 86 87 88 89
          90 91 92 93 94 95
          96 97 98 99 100 101
          102 103 104 105 106 107
          108 109 110 111 112 113
          114 115 116 117 118 119
          120 121 122 123 124 125
          126 127 128 129 130 131
          132 133 134 135 136 137
          138 139 140 141 142 143
          144 145 146 147 148 149
          150 151 152 153 154 155
          156 157 158 159 160 161
          162 163 164 165 166 167
          168 169 170 171 172 173
          174 175 176 177 178 179
          180 181 182 183 184 185
          186 187 188 189 190 191
          192 193 194 195 196 197
          198 199 200 201 202 203
          204 205 206 207 208 209
          210 211 212 213 214 215
          216 217 218 219 220 221
          222 223 224 225 226 227
          228 229 230 231 232 233
          234 235 236 237 238 239
          240 241 242 243 244 245
          246 247 248 249 250 251
          252 253 254 255 256 257
          258 259 260 261 262 263
          264 265 266 267 268 269
          270 271 272 273 274 275
          276 277 278 279 280 281
          282 283 284 285 286
        </DataArray>
        <DataArray type="Int64" Name="offsets" format="ascii" RangeMin="140" RangeMax="287">
          140 287
        </DataArray>
        <DataArray type="UInt8" Name="types" format="ascii" RangeMin="42" RangeMax="42">
          42 42
        </DataArray>
        <DataArray type="Int64" IdType="1" Name="faces" format="ascii" RangeMin="0" RangeMax="290">
          276 3 0 30 29 3
          0 17 23 3 0 4
          17 3 0 29 4 3
          0 83 67 3 0 67
          30 3 0 23 83 3
          1 3 4 3 1 6
          3 3 1 24 16 3
          1 4 24 3 1 75
          6 3 1 16 75 3
          2 74 87 3 2 50
          80 3 2 80 41 3
          2 41 64 3 2 79
          74 3 2 64 79 3
          2 87 50 3 3 6
          7 3 3 28 17 3
          3 7 28 3 3 17
          4 3 4 29 24 3
          5 33 46 3 5 108
          55 3 5 46 108 3
          5 55 56 3 5 56
          102 3 5 115 33 3
          5 102 115 3 6 72
          7 3 6 101 72 3
          6 75 101 3 7 73
          59 3 7 59 28 3
          7 72 73 3 8 59
          49 3 8 28 59 3
          8 62 28 3 8 61
          62 3 8 13 61 3
          8 49 13 3 9 14
          13 3 9 13 49 3
          9 71 10 3 9 10
          14 3 9 49 71 3
          10 15 14 3 10 93
          15 3 71 91 124 3
          10 107 93 3 107 124
          91 3 122 125 11 3
          113 114 11 3 132 122
          128 3 113 109 133 3
          12 25 34 3 12 34
          66 3 12 66 89 3
          12 65 22 3 12 82
          25 3 12 89 65 3
          12 22 82 3 13 18
          61 3 13 14 18 3
          14 15 19 3 14 19
          18 3 15 20 27 3
          15 27 19 3 15 93
          20 3 16 24 32 3
          16 32 100 3 16 104
          75 3 16 100 104 3
          17 28 62 3 17 62
          23 3 18 22 61 3
          18 19 25 3 18 25
          82 3 18 82 22 3
          19 26 25 3 19 27
          26 3 20 21 40 3
          20 40 27 3 20 92
          21 3 20 93 92 3
          21 98 40 3 21 37
          98 3 21 84 37 3
          21 92 84 3 22 62
          61 3 22 86 62 3
          22 65 86 3 23 62
          86 3 23 65 31 3
          23 86 65 3 23 31
          83 3 24 29 32 3
          25 26 34 3 26 27
          35 3 26 35 42 3
          26 42 34 3 27 40
          35 3 29 33 32 3
          29 106 33 3 29 30
          106 3 30 69 81 3
          30 67 63 3 30 63
          69 3 30 81 106 3
          31 67 83 3 31 89
          38 3 31 38 63 3
          31 65 89 3 31 63
          67 3 32 115 100 3
          32 33 115 3 33 81
          46 3 33 106 81 3
          34 42 79 3 34 77
          66 3 34 79 77 3
          35 44 42 3 35 39
          44 3 35 40 39 3
          36 48 47 3 36 47
          46 3 36 46 69 3
          36 41 48 3 36 68
          41 3 36 76 68 3
          36 69 76 3 37 53
          39 3 118 138 139 3
          37 84 90 3 37 39
          98 3 53 37 129 3
          38 68 63 3 38 89
          66 3 38 64 88 3
          38 66 64 3 38 88
          68 3 39 53 52 3
          39 52 44 3 39 40
          98 3 41 88 64 3
          41 80 48 3 41 68
          88 3 42 44 74 3
          42 74 79 3 43 60
          54 3 43 78 60 3
          43 55 47 3 43 47
          78 3 43 119 55 3
          43 54 97 3 43 97
          119 3 44 52 51 3
          44 51 74 3 45 51
          58 3 45 50 51 3
          45 60 50 3 45 58
          103 3 45 103 60 3
          46 81 69 3 46 47
          108 3 47 48 78 3
          47 55 108 3 48 85
          78 3 48 80 50 3
          48 50 85 3 49 59
          70 3 49 70 71 3
          50 60 85 3 50 87
          51 3 51 87 74 3
          51 52 58 3 52 53
          58 3 37 90 134 3
          37 134 129 3 54 60
          103 3 54 127 97 3
          103 127 54 3 55 119
          56 3 56 57 105 3
          56 119 57 3 56 105
          102 3 57 119 97 3
          131 135 136 3 97 139
          126 3 57 137 131 3
          58 118 103 3 59 73
          70 3 60 78 85 3
          63 68 76 3 63 76
          69 3 64 66 77 3
          64 77 79 3 70 73
          72 3 70 72 95 3
          70 94 71 3 70 95
          94 3 71 94 91 3
          72 101 99 3 72 99
          95 3 75 104 101 3
          84 96 90 3 84 92
          96 3 58 53 129 3
          90 96 113 3 114 111
          123 3 122 11 114 3
          92 111 96 3 92 93
          107 3 92 107 111 3
          127 103 118 3 130 122
          132 3 91 128 123 3
          132 128 95 3 132 95
          99 3 116 126 139 3
          130 136 135 3 94 128
          91 3 94 95 128 3
          114 123 128 3 114 128
          122 3 97 127 139 3
          99 101 120 3 100 115
          102 3 104 136 120 3
          100 112 104 3 120 130
          99 3 101 104 120 3
          130 120 136 3 116 139
          110 3 105 112 102 3
          118 129 138 3 118 139
          127 3 100 102 112 3
          110 139 133 3 130 135
          121 3 111 114 96 3
          122 130 125 3 91 111
          107 3 107 10 124 3
          58 129 118 3 113 11
          109 3 96 114 113 3
          131 136 112 3 71 124
          10 3 91 123 111 3
          105 57 131 3 133 139
          138 3 97 126 57 3
          104 112 136 3 105 131
          112 3 109 121 117 3
          133 138 90 3 116 57
          126 3 113 133 90 3
          116 110 109 3 11 125
          109 3 131 121 135 3
          57 116 137 3 121 125
          130 3 131 117 121 3
          109 117 116 3 134 90
          138 3 133 109 110 3
          132 99 130 3 125 121
          109 3 117 137 116 3
          117 131 137 3 134 138
          129 290 3 140 143 170
          3 140 170 150 3 140
          214 222 3 140 150 214
          3 140 251 143 3 140
          222 251 3 141 194 209
          3 141 212 204 3 141
          177 212 3 141 204 186
          3 141 186 194 3 141
          209 177 3 142 199 192
          3 142 192 198 3 142
          198 153 3 142 153 199
          3 143 251 207 3 143
          207 205 3 143 205 144
          3 143 144 170 3 144
          182 170 3 144 156 182
          3 144 146 156 3 144
          205 146 3 145 150 170
          3 145 170 182 3 145
          182 187 3 145 187 152
          3 145 152 150 3 146
          205 211 3 146 211 154
          3 146 154 155 3 146
          155 156 3 147 158 206
          3 147 202 158 3 147
          166 202 3 147 180 166
          3 147 181 180 3 147
          206 217 3 147 217 181
          3 148 157 195 3 148
          233 246 3 148 246 215
          3 148 252 157 3 148
          195 233 3 148 215 252
          3 149 164 151 3 149
          215 164 3 149 157 252
          3 149 166 157 3 149
          202 166 3 149 151 202
          3 149 252 215 3 150
          151 164 3 150 152 151
          3 150 164 214 3 151
          158 202 3 151 152 158
          3 152 187 218 3 152
          218 158 3 153 203 235
          3 153 220 203 3 153
          235 225 3 153 198 220
          3 153 234 199 3 153
          225 234 3 154 211 228
          3 154 160 155 3 154
          228 257 3 154 257 160
          3 155 161 156 3 155
          168 161 3 155 160 168
          3 156 161 226 3 156
          226 182 3 157 173 195
          3 157 175 173 3 157
          166 175 3 158 172 206
          3 158 218 172 3 239
          159 284 3 159 167 160
          3 159 239 167 3 159
          160 257 3 260 261 284
          3 260 284 159 3 160
          167 168 3 161 168 169
          3 161 169 204 3 161
          204 162 3 161 162 226
          3 162 187 182 3 162
          204 232 3 162 171 187
          3 162 232 171 3 162
          182 226 3 163 198 193
          3 163 193 201 3 163
          203 220 3 163 188 203
          3 163 213 188 3 163
          201 213 3 163 220 198
          3 164 222 214 3 164
          215 222 3 165 173 175
          3 165 267 173 3 165
          175 237 3 165 184 189
          3 165 189 247 3 165
          247 267 3 165 237 184
          3 166 180 175 3 167
          178 168 3 167 239 178
          3 168 178 179 3 168
          179 169 3 169 186 204
          3 169 179 186 3 171
          231 187 3 171 177 172
          3 171 212 177 3 171
          172 231 3 171 232 212
          3 172 176 206 3 172
          177 176 3 172 218 231
          3 173 267 238 3 173
          238 195 3 174 244 249
          3 174 285 244 3 174
          235 203 3 174 241 235
          3 174 249 241 3 175
          180 237 3 176 217 206
          3 176 185 181 3 176
          210 185 3 176 177 210
          3 176 181 217 3 177
          209 208 3 177 208 210
          3 178 239 213 3 178
          213 201 3 178 201 179
          3 179 201 186 3 180
          229 184 3 180 181 229
          3 180 184 237 3 181
          185 183 3 181 183 229
          3 250 280 269 3 254
          259 270 3 227 233 248
          3 183 185 191 3 183
          190 184 3 183 191 190
          3 183 184 229 3 184
          190 189 3 185 200 191
          3 185 210 208 3 185
          208 200 3 186 201 193
          3 186 193 194 3 187
          231 218 3 244 273 216
          3 174 203 285 3 213
          273 188 3 189 190 197
          3 189 196 247 3 189
          197 196 3 190 219 197
          3 190 191 219 3 191
          199 219 3 191 200 192
          3 191 192 199 3 192
          194 198 3 192 208 194
          3 192 200 208 3 193
          198 194 3 194 208 209
          3 195 221 233 3 195
          238 221 3 196 197 230
          3 256 243 258 3 196
          272 247 3 197 234 225
          3 197 199 234 3 197
          219 199 3 197 225 230
          3 159 257 260 3 257
          228 224 3 204 212 232
          3 205 207 211 3 207
          251 223 3 207 263 256
          3 207 256 255 3 262
          283 264 3 261 260 275
          3 211 224 228 3 207
          255 211 3 213 239 273
          3 215 246 222 3 273
          284 261 3 240 278 272
          3 273 261 216 3 267
          272 278 3 262 281 275
          3 251 271 223 3 251
          222 271 3 223 246 227
          3 223 227 243 3 207
          223 263 3 224 256 258
          3 224 258 265 3 250
          268 221 3 225 235 241
          3 225 241 230 3 267
          278 274 3 227 246 233
          3 266 265 275 3 196
          230 272 3 230 241 240
          3 265 258 253 3 254
          236 259 3 254 245 236
          3 266 275 260 3 277
          274 278 3 259 258 243
          3 258 259 253 3 240
          241 242 3 227 270 243
          3 241 249 242 3 249
          264 282 3 250 276 280
          3 244 216 264 3 244
          264 249 3 216 275 281
          3 262 275 279 3 283
          262 245 3 269 283 245
          3 254 269 245 3 253