<VTKFile type="UnstructuredGrid" version="1.0" byte_order="LittleEndian" header_type="UInt64">
  <UnstructuredGrid>
    <FieldData>
      <DataArray type="Float64" Name="TimeValue" NumberOfTuples="1" format="ascii" RangeMin="19" RangeMax="19">
        19
      </DataArray>
    </FieldData>
    <Piece NumberOfPoints="287" NumberOfCells="2">
      <PointData>
        <DataArray type="Int64" IdType="1" Name="vtkOriginalPointIds" format="ascii" RangeMin="275" RangeMax="561">
          275 276 277 278 279 280
          281 282 283 284 285 286
          287 288 289 290 291 292
          293 294 295 296 297 298
          299 300 301 302 303 304
          305 306 307 308 309 310
          311 312 313 314 315 316
          317 318 319 320 321 322
          323 324 325 326 327 328
          329 330 331 332 333 334
          335 336 337 338 339 340
          341 342 343 344 345 346
          347 348 349 350 351 352
          353 354 355 356 357 358
          359 360 361 362 363 364
          365 366 367 368 369 370
          371 372 373 374 375 376
          377 378 379 380 381 382
          383 384 385 386 387 388
          389 390 391 392 393 394
          395 396 397 398 399 400
          401 402 403 404 405 406
          407 408 409 410 411 412
          413 414 415 416 417 418
          419 420 421 422 423 424
          425 426 427 428 429 430
          431 432 433 434 435 436
          437 438 439 440 441 442
          443 444 445 446 447 448
          449 450 451 452 453 454
          455 456 457 458 459 460
          461 462 463 464 465 466
          467 468 469 470 471 472
          473 474 475 476 477 478
          479 480 481 482 483 484
          485 486 487 488 489 490
          491 492 493 494 495 496
          497 498 499 500 501 502
          503 504 505 506 507 508
          509 510 511 512 513 514
          515 516 517 518 519 520
          521 522 523 524 525 526
          527 528 529 530 531 532
          533 534 535 536 537 538
          539 540 541 542 543 544
          545 546 547 548 549 550
          551 552 553 554 555 556
          557 558 559 560 561
        </DataArray>
      </PointData>
      <CellData>
        <DataArray type="Int32" Name="cell_id" format="ascii" RangeMin="2" RangeMax="3">
          2 3
        </DataArray>
        <DataArray type="Int32" Name="cell_type_id" format="ascii" RangeMin="0" RangeMax="0">
          0 0
        </DataArray>
        <DataArray type="Float32" Name="cell_area" format="ascii" RangeMin="1.2080000333369867e-9" RangeMax="1.2090000112152666e-9">
          1.209e-9 1.208e-9
        </DataArray>
        <DataArray type="Float32" Name="cell_volume" format="ascii" RangeMin="3.901999996578547e-15" RangeMax="3.906000109671955e-15">
          3.906e-15 3.902e-15
        </DataArray>
        <DataArray type="Float32" Name="cell_pressure" format="ascii" RangeMin="167.5" RangeMax="172">
          167.5 172
        </DataArray>
        <DataArray type="Float32" Name="cell_growth_rate" format="ascii" RangeMin="0" RangeMax="0">
          0 0
        </DataArray>
        <DataArray type="Float32" Name="cell_division_vol" format="ascii" RangeMin="1.8999999327768552e-14" RangeMax="1.8999999327768552e-14">
          1.9e-14 1.9e-14
        </DataArray>
        <DataArray type="Int32" Name="cell_is_static" format="ascii" RangeMin="0" RangeMax="0">
          0 0
        </DataArray>
        <DataArray type="Float32" Name="target_volume" format="ascii" RangeMin="3.903999841367014e-15" RangeMax="3.9089998768546564e-15">
          3.909e-15 3.904e-15
        </DataArray>
        <DataArray type="Int64" IdType="1" Name="vtkOriginalCellIds" format="ascii" RangeMin="2" RangeMax="3">
          2 3
        </DataArray>
      </CellData>
      <Points>
        <DataArray type="Float32" Name="Points" NumberOfComponents="3" format="ascii" RangeMin="4.5738476252336106e-7" RangeMax="0.000019060297783698196">
          0.0000060400002 0.000017294 -6.3300007e-7 0.000004471 0.000015848 -0.000007229
          0.00000342828 0.000007555 0.0000087729995 0.0000020807 0.000017757 -0.000005528823
          0.0000053582003 0.000017187 -0.000004189 0.00000955 0.0000074161003 -0.0000033709
          0.0000012754 0.000015616 -0.0000083314 -0.0000010926 0.000016998 -0.0000064750698
          -0.0000037364002 0.000018219002 -0.0000013663002 -0.000008076 0.000014826 -4.5680002e-7
          -0.000009421 0.000012142999 2.6579988e-7 -0.0000042087 0.0000034295 -0.0000065141
          -5.757001e-7 0.000015731 0.00000706 -0.000006159 0.000016773 8.2620005e-7
          -0.00000794 0.000014464 0.0000027209999 -0.000009022 0.0000113412 0.0000038445996
          0.0000061452 0.000013235 -0.0000081264 0.00000266049 0.000018727 -0.0000019788001
          -0.0000051167 0.000016256 0.0000043706996 -0.0000068261998 0.000013221 0.0000059659997
          -0.000009149 0.0000079516 0.0000040341 -0.000008319 0.0000049258 0.0000036707997
          -0.0000016391999 0.000017793001 0.0000041289004 0.0000030906701 0.00001842 0.0000016733998
          0.0000069139 0.000015062999 -0.00000598237 -0.000003861 0.000014444 0.000007253
          -0.0000048183 0.000011262 0.000008383 -0.00000756 0.0000097694 0.0000066370003
          -7.593e-7 0.000018635 -0.0000033883 0.0000081833 0.000014937999 -0.0000030888
          0.0000085591 0.000014638999 3.9320008e-7 0.0000048729003 0.000016562 0.0000042743995
          0.0000084279 0.000012705999 -0.00000589984 0.0000097916 0.0000113621 -0.0000030106
          -0.0000012945999 0.000012461 0.000009013 -0.0000053973 0.0000076735 0.000008308
          0.0000087374 0.0000090116 0.0000039381002 -0.0000059586 0.00000240611 0.0000036840001
          0.0000051738 0.000013766 0.000006761 -0.0000052726 0.0000042636 0.000006946
          -0.0000074839 0.0000064794003 0.0000062219997 0.0000063073 0.0000089133 0.000007072
          -0.0000024287 0.0000089775 0.000009526 0.0000063832 0.00000240044 0.0000010047002
          -0.0000027587002 0.0000055748 0.000008819 0.00000212638 0.0000023655 0.000006253
          0.0000100083 0.0000090594 1.0030003e-7 0.0000086254 0.0000056103 0.0000017750999
          0.0000069138 0.0000058755004 0.0000053100002 -0.0000063115003 0.000016204 -0.0000027569001
          0.0000039956 0.0000045162 0.0000071249997 3.1790006e-7 0.0000038124 0.00000801
          -0.0000025110003 0.0000030955 0.0000073539995 -0.0000037666 0.000001967925 0.000005606
          0.0000039326 8.836e-7 0.0000021899996 0.0000083041 0.0000043057003 -0.0000015578999
          0.0000076183 0.0000044965 -0.00000482565 0.0000047294 0.00000250229 -0.00000578495
          -8.099e-7 0.00000128972 0.000005576 -0.0000036976003 0.000017216 -0.00000465085
          0.0000046706 0.0000024435801 0.0000044538 -0.000003621 0.000018091001 0.0000018156998
          -5.240001e-7 0.000018951001 4.7179998e-7 0.0000075924 0.00001412 0.0000038473
          0.0000037818 0.000011002 0.000008633 0.0000015773301 0.00001756 0.000004736
          0.00000191467 0.000013626 0.000008362 0.0000068035 0.000016273 0.0000020051998
          0.0000074073 0.000011577 0.000005731 0.0000093741 0.0000119179995 0.0000021171
          -0.0000055375003 0.000014566 -0.00000613584 -0.000008263 0.000013215999 -0.0000033598
          -0.0000022404001 0.000014258 -0.0000085658 -0.0000032920002 0.00001592 -0.0000066418
          1.7679992e-7 0.0000067331002 0.000009433 0.0000036238 0.000013802 -0.000009226
          0.0000085425 0.000011755899 0.0000039726 0.0000013084001 0.0000116657 0.000009235
          0.000006726 0.0000038078 0.0000034583 8.3080005e-7 0.0000097623 0.000009667
          0.0000053126 0.0000066217003 0.0000073230003 0.0000098227 0.00001215 -4.173998e-7
          -0.0000030106999 0.000016214 0.0000059390004 0.0000053461 0.000017392 0.0000018533001
          -0.000007875 0.0000034188001 0.0000012147998 0.0000056784 0.000003855 0.000005011
          6.561e-7 0.000018480001 0.0000028143995 0.00000201833 0.0000054455 0.000008544
          0.0000058103 0.0000114292 0.0000072740004 0.00000273477 0.000015792 0.0000066089997
          -0.0000057202997 0.00000155831 -2.2489981e-7 -0.000008881 0.0000097293 -0.0000042289
          -0.00000945 0.0000062551003 7.1260007e-7 -0.000009858 0.0000093091 0.0000016927002
          -0.0000072505 0.0000116698 -0.00000620101 -0.0000049051 0.0000115918 -0.0000084179
          -0.000007788 0.0000038482 -0.0000018696 0.0000035492 6.8249994e-7 -0.0000015247001
          -0.0000069461003 0.0000043677 0.0000053309996 -0.0000018545 0.0000106766 -0.0000099997
          0.0000073998 0.000010259099 -0.0000079527 9.854001e-7 0.000012695999 -0.0000100306
          0.000008219 0.0000073271003 -0.0000066703 0.0000019173401 7.417e-7 0.0000039078996
          0.0000042758 0.0000106407 -0.0000098337 0.0000063469997 0.0000051572 -0.0000074727
          0.0000093074 0.000013359 -0.0000016162999 -0.000009824 0.0000091638 -0.0000011113002
          0.0000095717005 0.0000065408003 -8.96e-7 -0.0000012973 0.00000158978 -0.000005482551
          -6.5700014e-8 -7.840003e-8 -4.4580014e-7 -0.000009 0.0000067398 -0.0000029105001
          0.0000057901 0.0000074643003 -0.0000089116 -0.0000051166003 0.00000216784 -0.0000037446
          -0.0000068853997 0.0000051712 -0.0000053768 0.000009227901 0.0000097956 -0.00000562283
          -9.699e-7 1.9600071e-8 0.0000025944 0.0000062333 0.00000218197 -0.0000026784
          0.0000011601 0.0000096568 -0.0000105528 2.727e-7 0.0000037206 -0.0000083049
          -0.0000044174 0.0000059525 -0.0000082143 -0.000008197 0.0000074797003 -0.00000506607
          -0.000009375 0.000011084399 -0.0000021390001 -0.0000021541 0.0000040086 -0.0000080753
          0.0000042162 0.00000124106 -0.0000037283 -0.0000067655 0.000008608 -0.0000071457
          -0.0000031652999 6.9789996e-7 0.0000033919996 -9.836e-7 0.0000068596 -0.0000098287
          0.0000036209 0.0000047249 -0.0000085736 -0.0000039684 0.000008703 -0.0000092361
          -0.0000032515 6.12e-7 -0.0000025048 -0.000004573 9.757e-7 0.0000018793999
          0.00000163641 0.0000055399 -0.0000093891995 0.00000280803 0.0000073319 -0.0000100273
          -0.000002755 8.040002e-8 2.2001105e-9 0.0000019854301 0.00000230012 -0.0000067396
          0.00000178588 2.439e-7 -0.0000028498 0.000002481495 8.8490003e-7 -0.0000041769
          1.8890006e-7 3.7299973e-8 -0.0000020475 0.0000013528 3.5230005e-7 9.863002e-7
          -0.000009501 -0.000013748001 0.0000032116995 0.0000052516 -0.000016599999 0.0000022290997
          0.000008967 -0.000009297 0.0000013597 -0.000009248 -0.000014479 -1.1510015e-7
          -0.0000068653 -0.000017041999 -0.0000010295003 -0.0000056770004 -0.000017175998 0.0000043815
          -0.0000057776997 -0.000016602999 -0.0000043182 -9.4370006e-7 -0.0000112220005 0.000010001
          -0.000007724 -0.0000053817 0.000005795 -0.0000064028 -0.000009441001 0.000008645
          -0.000007603 -0.000014811 0.0000056239996 -0.0000059553004 -0.000013219 0.000008277
          -0.0000046941 -0.000016017999 0.0000068890004 0.000009074301 -0.0000073238 -5.031001e-7
          -0.0000043537 -0.000015234001 -0.0000070185 -0.0000022066001 -0.000017538 -0.00000523906
          -0.0000037344998 -0.000018412999 -0.0000021208 -0.0000051247002 -0.0000056719996 0.000008046
          -0.0000026071002 -0.000014300001 0.000008899 3.4119995e-7 -0.000012967001 -0.0000095334
          -9.720999e-7 -0.000015463 -0.0000078731 1.4900087e-8 -0.000018755 -0.0000022462
          -5.701001e-7 -0.0000189 0.0000016385002 0.0000083838 -0.0000111340005 -0.0000041597
          -0.0000084 -0.000011758 0.0000068890004 0.0000010121 -0.0000034254 0.000007568
          -0.0000031552 -0.000008309 0.000009711 0.0000020303 -0.000014910001 -0.0000081483
          0.0000016583 -0.000017153 -0.0000056842 0.00000323287 -0.000017937 -0.0000027965
          -0.000007635 -0.000016390999 0.0000023060002 7.67e-7 -0.000017864999 0.0000047430003
          4.2080006e-7 -0.000015926998 0.000007523 -0.0000024535002 -0.0000028953998 0.0000071080003
          0.0000071258 -0.0000049192 -0.00000513353 -0.0000016309999 -0.0000054116 0.00000901
          0.00000275716 -0.000013678001 0.000008212 0.000003868 -0.000015878999 0.0000055479995
          0.0000045255 -0.000014961 -0.0000068501 0.0000047271 -0.000016520999 -0.0000044546
          2.780999e-7 -0.0000078491 0.000009822001 0.00000235663 -0.000010637 0.000009322
          -0.0000044199 -0.000018371999 0.0000014429997 0.000004668 -0.000008686 0.0000082139995
          0.00000295666 -0.0000060741 0.000008602 0.0000052834002 -0.000011623 0.000007376
          0.0000059146 -0.000016334 -0.0000013401 -0.0000026840999 -0.000017995999 0.000004705
          0.0000072136 -0.000008956 -0.0000067522 0.0000044144 -0.0000038276 0.0000062789995
          0.0000059005 -0.0000061550995 0.0000065579998 0.0000071076997 -0.000009112 0.000005848
          0.0000082543 -0.000011012 0.0000032553999 0.0000080360005 -0.000013579001 -0.0000018484
          0.0000075169 -0.000014112999 0.0000015227001 -0.0000055103 -0.0000028693 0.000005424
          0.000004561 -0.0000021327999 0.0000036825995 0.0000069053 -0.0000044855997 0.0000035951998
          0.0000089668 -0.000011 -3.6729983e-7 0.0000085396005 -0.000007589 0.0000030705996
          0.0000070421 -0.00001131 0.0000054479997 0.0000067343 -0.000014344 -0.000004495
          -0.0000040512 -0.000011525 0.000009691 0.0000085918 -0.0000075262 -0.0000041484
          0.00000289833 -0.000018298999 3.423998e-7 -0.000008221 -0.0000149180005 -0.0000029554
          1.2869992e-7 -0.000013677 0.000009143 -0.000009619 -0.000011722001 -0.0000027241
          0.0000065011 -0.000013443 0.000004988 0.0000059887 -0.000015142 0.0000036887996
          0.000004758 -0.000013774 0.0000067700003 -0.0000072903003 -0.000013522001 -0.00000560827
          0.00000309079 -0.000017715 0.0000032499001 0.0000062498 -0.000012085 -0.0000071827
          -0.000009129 -0.000012821 0.000005279 -0.00000891 -0.00000868 0.000006444
          0.000002553585 -0.0000064575 -0.0000094679 0.0000011286 -0.000012294 0.000009387
          -0.0000022714999 -0.000016527 0.000007185 0.0000074298 -0.0000068491995 0.000004888
          0.0000091191005 -0.000009452 -0.0000023365 -0.0000049244 -0.0000010839001 0.0000020844
          -0.000010111 -0.000010739001 0.0000042911997 -0.000010426 -0.000008484 -2.9879988e-7
          -0.0000064087 -0.000010415 -0.0000076523 0.0000076981005 -0.0000041266 5.3600203e-8
          -0.0000021254 -0.000018939 -3.032e-7 -0.0000092850005 -0.0000049350997 8.090005e-8
          -0.0000054431002 -0.000013052 -0.0000076578 0.0000025080194 -0.000008415001 0.000009298
          0.0000055643 -0.0000021337999 0.0000011092998 -0.0000010225 -0.000017313 0.0000061970004
          0.00000163939 -0.000018412999 0.000002533 -0.000007818 -0.0000035312999 0.0000028051
          0.0000084848 -0.0000058908995 0.0000015641999 0.0000081302005 -0.0000051255997 -0.0000025891
          -0.0000051761 -0.0000029874998 -0.000005463427 4.546999e-7 -0.0000054603997 0.000009039
          -0.0000028658 -0.0000011487 0.0000046739997 0.00000346923 -0.0000126390005 -0.0000089407
          0.0000059984 -0.0000025456 -0.0000025656 0.0000029769 -0.0000012051 -0.0000039056
          -0.000009187 -0.0000064325 -0.0000032613 0.0000054934 -0.0000059544996 -0.0000077352
          -0.0000029779999 -0.0000024688 -0.00000648048 -0.000009791 -0.0000069707 0.0000032862
          0.0000026757 -0.0000020146 0.0000054310003 -0.0000070474 -0.0000021508001 -2.7180016e-7
          0.0000049741 -0.0000032145 -0.0000058675 -0.0000029194002 -2.524e-7 -7.004e-7
          -0.000010456 -0.000011598 0.0000010301001 -0.0000072802004 -0.0000074271998 0.0000075279995
          -0.0000053046997 -0.0000045012 -0.0000069544 -0.0000052921005 -0.0000018067001 -0.0000035258001
          -0.000008276 -0.000011262 -0.00000540331 -0.000008844 -0.000009248 -0.0000050147
          -0.0000032377002 -0.000012628 -0.0000090449 -0.0000073620004 -0.0000068744 -0.00000644129
          -0.0000070583 -0.0000041157 -0.00000482233 -7.7249996e-7 -0.000010197 -0.0000101539
          0.00000165936 -0.000008671001 -0.0000100452 -5.3570005e-7 -0.0000037968 -0.0000084399
          -0.00000988 -0.000008883 -0.000002729 0.000002515955 -0.0000038109 -0.0000080108
          -0.0000047306003 -0.0000070035 -0.0000085361 -0.0000034299 -0.0000094160005 -0.000009545
          -0.0000050444 -9.1740003e-7 -7.127e-7 -0.0000022693002 -9.005e-7 -0.0000042644
          -0.000007983 -0.0000035833998 -0.0000024761 -0.000010555 -0.000009441001 0.0000023103003
          0.0000025069774 -6.5070003e-7 0.0000026214002 0.0000045052 -0.000009309 -0.0000089815
          -0.0000010573 -0.0000069494995 -0.0000097467 -4.740007e-8 -0.0000011877 0.000004963
          -0.0000029953999 -0.000004578 -0.0000083669 1.3720006e-7 -2.5700041e-8 -0.0000020343
          9.547e-7 -0.0000052668997 -0.0000093189 0.00000276461 -0.0000021704998 -0.00000617173
          4.782001e-7 -0.0000016905999 -0.00000605715 0.0000019439 -0.000010813 -0.0000098708
          0.0000073625997 -0.0000069025996 -0.00000626201 -0.0000012883999 -1.5029991e-7 0.0000020339999
          0.0000036211 -7.2469993e-7 -5.9810003e-7 2.975001e-7 -7.658e-7 -0.0000038530998
          0.0000018189701 -1.1449992e-7 -0.0000016112999 0.0000014397001 -2.2879999e-7 8.1900004e-7
          -6.077e-7 -2.0690004e-7 5.1200047e-8
          <InformationKey name="L2_NORM_FINITE_RANGE" location="vtkDataArray" length="2">
            <Value index="0">
              4.5738476252e-07
            </Value>
            <Value index="1">
              1.9060297784e-05
            </Value>
          </InformationKey>
          <InformationKey name="L2_NORM_RANGE" location="vtkDataArray" length="2">
            <Value index="0">
              4.5738476252e-07
            </Value>
            <Value index="1">
              1.9060297784e-05
            </Value>
          </InformationKey>
        </DataArray>
      </Points>
      <Cells>
        <DataArray type="Int64" Name="connectivity" format="ascii" RangeMin="0" RangeMax="286">
          0 1 2 3 4 5
          6 7 8 9 10 11
          12 13 14 15 16 17
          18 19 20 21 22 23
          24 25 26 27 28 29
          30 31 32 33 34 35
          36 37 38 39 40 41
          42 43 44 45 46 47
          48 49 50 51 52 53
          54 55 56 57 58 59
          60 61 62 63 64 65
          66 67 68 69 70 71
          72 73 74 75 76 77
          78 79 80 81 82 83
          84 85 86 87 88 89
          90 91 92 93 94 95
          96 97 98 99 100 101
          102 103 104 105 106 107
          108 109 110 111 112 113
          114 115 116 117 118 119
          120 121 122 123 124 125
          126 127 128 129 130 131
          132 133 134 135 136 137
          138 139 140 141 142 143
          144 145 146 147 148 149
          150 151 152 153 154 155
          156 157 158 159 160 161
          162 163 164 165 166 167
          168 169 170 171 172 173
          174 175 176 177 178 179
          180 181 182 183 184 185
          186 187 188 189 190 191
          192 193 194 195 196 197
          198 199 200 201 202 203
          204 205 206 207 208 209
          210 211 212 213 214 215
          216 217 218 219 220 221
          222 223 224 225 226 227
          228 229 230 231 232 233
          234 235 236 237 238 239
          240 241 242 243 244 245
          246 247 248 249 250 251
          252 253 254 255 256 257
          258 259 260 261 262 263
          264 265 266 267 268 269
          270 271 272 273 274 275
          276 277 278 279 280 281
          282 283 284 285 286
        </DataArray>
        <DataArray type="Int64" Name="offsets" format="ascii" RangeMin="140" RangeMax="287">
          140 287
        </DataArray>
        <DataArray type="UInt8" Name="types" format="ascii" RangeMin="42" RangeMax="42">
          42 42
        </DataArray>
        <DataArray type="Int64" IdType="1" Name="faces" format="ascii" RangeMin="0" RangeMax="290">
          276 3 0 30 29 3
          0 17 23 3 0 4
          17 3 0 29 4 3
          0 83 67 3 0 67
          30 3 0 23 83 3
          1 3 4 3 1 6
          3 3 1 24 16 3
          1 4 24 3 1 75
          6 3 1 16 75 3
          2 74 87 3 2 50
          80 3 2 80 41 3
          2 41 64 3 2 79
          74 3 2 64 79 3
          2 87 50 3 3 6
          7 3 3 28 17 3
          3 7 28 3 3 17
          4 3 4 29 24 3
          5 33 46 3 5 108
          55 3 5 46 108 3
          5 55 56 3 5 56
          102 3 5 115 33 3
          5 102 115 3 6 72
          7 3 6 101 72 3
          6 75 101 3 7 73
          59 3 7 59 28 3
          7 72 73 3 8 59
          49 3 8 28 59 3
          8 62 28 3 8 61
          62 3 8 13 61 3
          8 49 13 3 9 14
          13 3 9 13 49 3
          9 71 10 3 9 10
          14 3 9 49 71 3
          10 15 14 3 10 93
          15 3 71 91 122 3
          10 107 93 3 107 122
          91 3 120 123 11 3
          113 114 11 3 129 120
          125 3 113 109 130 3
          12 25 34 3 12 34
          66 3 12 66 89 3
          12 65 22 3 12 82
          25 3 12 89 65 3
          12 22 82 3 13 18
          61 3 13 14 18 3
          14 15 19 3 14 19
          18 3 15 20 27 3
          15 27 19 3 15 93
          20 3 16 24 32 3
          16 32 100 3 16 104
          75 3 16 100 104 3
          17 28 62 3 17 62
          23 3 18 22 61 3
          18 19 25 3 18 25
          82 3 18 82 22 3
          19 26 25 3 19 27
          26 3 20 21 40 3
          20 40 27 3 20 92
          21 3 20 93 92 3
          21 98 40 3 21 37
          98 3 21 84 37 3
          21 92 84 3 22 62
          61 3 22 86 62 3
          22 65 86 3 23 62
          86 3 23 65 31 3
          23 86 65 3 23 31
          83 3 24 29 32 3
          25 26 34 3 26 27
          35 3 26 35 42 3
          26 42 34 3 27 40
          35 3 29 33 32 3
          29 106 33 3 29 30
          106 3 30 69 81 3
          30 67 63 3 30 63
          69 3 30 81 106 3
          31 67 83 3 31 89
          38 3 31 38 63 3
          31 65 89 3 31 63
          67 3 32 115 100 3
          32 33 115 3 33 81
          46 3 33 106 81 3
          34 42 79 3 34 77
          66 3 34 79 77 3
          35 44 42 3 35 39
          44 3 35 40 39 3
          36 48 47 3 36 47
          46 3 36 46 69 3
          36 41 48 3 36 68
          41 3 36 76 68 3
          36 69 76 3 37 53
          39 3 134 138 110 3
          37 84 90 3 37 39
          98 3 53 37 126 3
          38 68 63 3 38 89
          66 3 38 64 88 3
          38 66 64 3 38 88
          68 3 39 53 52 3
          39 52 44 3 39 40
          98 3 41 88 64 3
          41 80 48 3 41 68
          88 3 42 44 74 3
          42 74 79 3 43 60
          54 3 43 78 60 3
          43 55 47 3 43 47
          78 3 43 117 55 3
          43 54 97 3 43 97
          117 3 44 52 51 3
          44 51 74 3 45 51
          58 3 45 50 51 3
          45 60 50 3 45 58
          103 3 45 103 60 3
          46 81 69 3 46 47
          108 3 47 48 78 3
          47 55 108 3 48 85
          78 3 48 80 50 3
          48 50 85 3 49 59
          70 3 49 70 71 3
          50 60 85 3 50 87
          51 3 51 87 74 3
          51 52 58 3 52 53
          58 3 37 90 131 3
          37 131 126 3 54 60
          103 3 55 117 56 3
          56 57 105 3 56 117
          57 3 56 105 102 3
          117 97 124 3 128 132
          133 3 97 138 136 3
          57 135 128 3 58 116
          103 3 59 73 70 3
          60 78 85 3 63 68
          76 3 63 76 69 3
          64 66 77 3 64 77
          79 3 70 73 72 3
          70 72 95 3 70 94
          71 3 70 95 94 3
          71 94 91 3 72 101
          99 3 72 99 95 3
          75 104 101 3 84 96
          90 3 84 92 96 3
          58 53 126 3 90 96
          113 3 114 111 121 3
          120 11 114 3 92 111
          96 3 92 93 107 3
          92 107 111 3 127 120
          129 3 91 125 121 3
          129 125 95 3 129 95
          99 3 97 136 137 3
          127 133 132 3 94 125
          91 3 94 95 125 3
          114 121 125 3 114 125
          120 3 103 139 54 3
          99 101 118 3 100 115
          102 3 104 133 118 3
          100 112 104 3 118 127
          99 3 101 104 118 3
          127 118 133 3 137 124
          97 3 105 112 102 3
          116 126 134 3 97 54
          139 3 100 102 112 3
          134 110 116 3 127 132
          119 3 111 114 96 3
          120 127 123 3 91 111
          107 3 107 10 122 3
          58 126 116 3 113 11
          109 3 96 114 113 3
          128 133 112 3 71 122
          10 3 91 121 111 3
          105 57 128 3 97 139
          110 3 117 124 57 3
          104 112 133 3 105 128
          112 3 109 119 135 3
          130 134 90 3 137 57
          124 3 113 130 90 3
          137 138 109 3 11 123
          109 3 128 119 132 3
          57 137 135 3 119 123
          127 3 128 135 119 3
          109 135 137 3 131 90
          134 3 130 109 138 3
          129 99 127 3 123 119
          109 3 138 137 136 3
          130 138 134 3 131 134
          126 3 138 97 110 3
          116 139 103 3 116 110
          139 290 3 140 143 170
          3 140 170 150 3 140
          214 222 3 140 150 214
          3 140 250 143 3 140
          222 250 3 141 194 209
          3 141 212 204 3 141
          177 212 3 141 204 186
          3 141 186 194 3 141
          209 177 3 142 199 192
          3 142 192 198 3 142
          198 153 3 142 153 199
          3 143 250 207 3 143
          207 205 3 143 205 144
          3 143 144 170 3 144
          182 170 3 144 156 182
          3 144 146 156 3 144
          205 146 3 145 150 170
          3 145 170 182 3 145
          182 187 3 145 187 152
          3 145 152 150 3 146
          205 211 3 146 211 154
          3 146 154 155 3 146
          155 156 3 147 158 206
          3 147 202 158 3 147
          166 202 3 147 180 166
          3 147 181 180 3 147
          206 217 3 147 217 181
          3 148 157 195 3 148
          233 245 3 148 245 215
          3 148 251 157 3 148
          195 233 3 148 215 251
          3 149 164 151 3 149
          215 164 3 149 157 251
          3 149 166 157 3 149
          202 166 3 149 151 202
          3 149 251 215 3 150
          151 164 3 150 152 151
          3 150 164 214 3 151
          158 202 3 151 152 158
          3 152 187 218 3 152
          218 158 3 153 203 235
          3 153 220 203 3 153
          235 225 3 153 198 220
          3 153 234 199 3 153
          225 234 3 154 211 228
          3 154 160 155 3 154
          228 256 3 154 256 160
          3 155 161 156 3 155
          168 161 3 155 160 168
          3 156 161 226 3 156
          226 182 3 157 173 195
          3 157 175 173 3 157
          166 175 3 158 172 206
          3 158 218 172 3 239
          159 279 3 159 167 160
          3 159 239 167 3 159
          160 256 3 259 260 279
          3 259 279 159 3 160
          167 168 3 161 168 169
          3 161 169 204 3 161
          204 162 3 161 162 226
          3 162 187 182 3 162
          204 232 3 162 171 187
          3 162 232 171 3 162
          182 226 3 163 198 193
          3 163 193 201 3 163
          203 220 3 163 188 203
          3 163 213 188 3 163
          201 213 3 163 220 198
          3 164 222 214 3 164
          215 222 3 165 173 175
          3 165 273 173 3 165
          175 237 3 165 184 189
          3 165 189 246 3 165
          246 273 3 165 237 184
          3 166 180 175 3 167
          178 168 3 167 239 178
          3 168 178 179 3 168
          179 169 3 169 186 204
          3 169 179 186 3 171
          231 187 3 171 177 172
          3 171 212 177 3 171
          172 231 3 171 232 212
          3 172 176 206 3 172
          177 176 3 172 218 231
          3 173 273 238 3 173
          238 195 3 174 243 248
          3 174 280 243 3 174
          235 203 3 174 240 235
          3 174 248 240 3 175
          180 237 3 176 217 206
          3 176 185 181 3 176
          210 185 3 176 177 210
          3 176 181 217 3 177
          209 208 3 177 208 210
          3 178 239 213 3 178
          213 201 3 178 201 179
          3 179 201 186 3 180
          229 184 3 180 181 229
          3 180 184 237 3 181
          185 183 3 181 183 229
          3 249 275 267 3 253
          258 268 3 227 233 247
          3 183 185 191 3 183
          190 184 3 183 191 190
          3 183 184 229 3 184
          190 189 3 185 200 191
          3 185 210 208 3 185
          208 200 3 186 201 193
          3 186 193 194 3 187
          231 218 3 243 271 216
          3 174 203 280 3 213
          271 188 3 189 190 197
          3 189 196 246 3 189
          197 196 3 190 219 197
          3 190 191 219 3 191
          199 219 3 191 200 192
          3 191 192 199 3 192
          194 198 3 192 208 194
          3 192 200 208 3 193
          198 194 3 194 208 209
          3 195 221 233 3 195
          238 221 3 196 197 230
          3 255 242 257 3 196
          270 246 3 197 234 225
          3 197 199 234 3 197
          219 199 3 197 225 230
          3 159 256 259 3 256
          228 224 3 204 212 232
          3 205 207 211 3 207
          250 223 3 207 262 255
          3 207 255 254 3 261
          278 263 3 260 259 272
          3 211 224 228 3 207
          254 211 3 213 239 271
          3 215 245 222 3 271
          279 260 3 275 285 284
          3 271 260 216 3 273
          270 281 3 261 276 272
          3 250 269 223 3 250
          222 269 3 223 245 227
          3 223 227 242 3 207
          223 262 3 224 255 257
          3 224 257 264 3 249
          266 221 3 225 235 240
          3 225 240 230 3 227
          245 233 3 265 264 272
          3 196 230 270 3 230
          240 282 3 264 257 252
          3 253 236 258 3 253
          244 236 3 265 272 259
          3 238 281 221 3 258
          257 242 3 257 258 252
          3 275 284 241 3 227
          268 242 3 240 248 241
          3 248 263 277 3 243
          216 263 3 243 263 248
          3 216 272 276 3 261
          272 274 3 278 261 244
          3 267 278 244 3 253
          267 244 3 252 236 244