# vtk DataFile Version 4.2
vtk output
ASCII
DATASET UNSTRUCTURED_GRID
POINTS 287 float
6.04000E-06 1.72940E-05 -6.33000E-07 4.47100E-06 1.58480E-05 -7.22900E-06 3.42828E-06 7.55500E-06 8.77300E-06 
2.08070E-06 1.77570E-05 -5.52882E-06 5.35820E-06 1.71870E-05 -4.18900E-06 9.55000E-06 7.41610E-06 -3.37090E-06 
1.27540E-06 1.56160E-05 -8.33140E-06 -1.09260E-06 1.69980E-05 -6.47507E-06 -3.73640E-06 1.82190E-05 -1.36630E-06 
-8.07600E-06 1.48260E-05 -4.56800E-07 -9.42100E-06 1.21430E-05 2.65800E-07 -4.20870E-06 3.42950E-06 -6.51410E-06 
-5.75700E-07 1.57310E-05 7.06000E-06 -6.15900E-06 1.67730E-05 8.26200E-07 -7.94000E-06 1.44640E-05 2.72100E-06 
-9.02200E-06 1.13412E-05 3.84460E-06 6.14520E-06 1.32350E-05 -8.12640E-06 2.66049E-06 1.87270E-05 -1.97880E-06 
-5.11670E-06 1.62560E-05 4.37070E-06 -6.82620E-06 1.32210E-05 5.96600E-06 -9.14900E-06 7.95160E-06 4.03410E-06 
-8.31900E-06 4.92580E-06 3.67080E-06 -1.63920E-06 1.77930E-05 4.12890E-06 3.09067E-06 1.84200E-05 1.67340E-06 
6.91390E-06 1.50630E-05 -5.98237E-06 -3.86100E-06 1.44440E-05 7.25300E-06 -4.81830E-06 1.12620E-05 8.38300E-06 
-7.56000E-06 9.76940E-06 6.63700E-06 -7.59300E-07 1.86350E-05 -3.38830E-06 8.18330E-06 1.49380E-05 -3.08880E-06 
8.55910E-06 1.46390E-05 3.93200E-07 4.87290E-06 1.65620E-05 4.27440E-06 8.42790E-06 1.27060E-05 -5.89984E-06 
9.79160E-06 1.13621E-05 -3.01060E-06 -1.29460E-06 1.24610E-05 9.01300E-06 -5.39730E-06 7.67350E-06 8.30800E-06 
8.73740E-06 9.01160E-06 3.93810E-06 -5.95860E-06 2.40611E-06 3.68400E-06 5.17380E-06 1.37660E-05 6.76100E-06 
-5.27260E-06 4.26360E-06 6.94600E-06 -7.48390E-06 6.47940E-06 6.22200E-06 6.30730E-06 8.91330E-06 7.07200E-06 
-2.42870E-06 8.97750E-06 9.52600E-06 6.38320E-06 2.40044E-06 1.00470E-06 -2.75870E-06 5.57480E-06 8.81900E-06 
2.12638E-06 2.36550E-06 6.25300E-06 1.00083E-05 9.05940E-06 1.00300E-07 8.62540E-06 5.61030E-06 1.77510E-06 
6.91380E-06 5.87550E-06 5.31000E-06 -6.31150E-06 1.62040E-05 -2.75690E-06 3.99560E-06 4.51620E-06 7.12500E-06 
3.17900E-07 3.81240E-06 8.01000E-06 -2.51100E-06 3.09550E-06 7.35400E-06 -3.76660E-06 1.96793E-06 5.60600E-06 
3.93260E-06 8.83600E-07 2.19000E-06 8.30410E-06 4.30570E-06 -1.55790E-06 7.61830E-06 4.49650E-06 -4.82565E-06 
4.72940E-06 2.50229E-06 -5.78495E-06 -8.09900E-07 1.28972E-06 5.57600E-06 -3.69760E-06 1.72160E-05 -4.65085E-06 
4.67060E-06 2.44358E-06 4.45380E-06 -3.62100E-06 1.80910E-05 1.81570E-06 -5.24000E-07 1.89510E-05 4.71800E-07 
7.59240E-06 1.41200E-05 3.84730E-06 3.78180E-06 1.10020E-05 8.63300E-06 1.57733E-06 1.75600E-05 4.73600E-06 
1.91467E-06 1.36260E-05 8.36200E-06 6.80350E-06 1.62730E-05 2.00520E-06 7.40730E-06 1.15770E-05 5.73100E-06 
9.37410E-06 1.19180E-05 2.11710E-06 -5.53750E-06 1.45660E-05 -6.13584E-06 -8.26300E-06 1.32160E-05 -3.35980E-06 
-2.24040E-06 1.42580E-05 -8.56580E-06 -3.29200E-06 1.59200E-05 -6.64180E-06 1.76800E-07 6.73310E-06 9.43300E-06 
3.62380E-06 1.38020E-05 -9.22600E-06 8.54250E-06 1.17559E-05 3.97260E-06 1.30840E-06 1.16657E-05 9.23500E-06 
6.72600E-06 3.80780E-06 3.45830E-06 8.30800E-07 9.76230E-06 9.66700E-06 5.31260E-06 6.62170E-06 7.32300E-06 
9.82270E-06 1.21500E-05 -4.17400E-07 -3.01070E-06 1.62140E-05 5.93900E-06 5.34610E-06 1.73920E-05 1.85330E-06 
-7.87500E-06 3.41880E-06 1.21480E-06 5.67840E-06 3.85500E-06 5.01100E-06 6.56100E-07 1.84800E-05 2.81440E-06 
2.01833E-06 5.44550E-06 8.54400E-06 5.81030E-06 1.14292E-05 7.27400E-06 2.73477E-06 1.57920E-05 6.60900E-06 
-5.72030E-06 1.55831E-06 -2.24900E-07 -8.88100E-06 9.72930E-06 -4.22890E-06 -9.45000E-06 6.25510E-06 7.12600E-07 
-9.85800E-06 9.30910E-06 1.69270E-06 -7.25050E-06 1.16698E-05 -6.20101E-06 -4.90510E-06 1.15918E-05 -8.41790E-06 
-7.78800E-06 3.84820E-06 -1.86960E-06 3.54920E-06 6.82500E-07 -1.52470E-06 -6.94610E-06 4.36770E-06 5.33100E-06 
-1.85450E-06 1.06766E-05 -9.99970E-06 7.39980E-06 1.02591E-05 -7.95270E-06 9.85400E-07 1.26960E-05 -1.00306E-05 
8.21900E-06 7.32710E-06 -6.67030E-06 1.91734E-06 7.41700E-07 3.90790E-06 4.27580E-06 1.06407E-05 -9.83370E-06 
6.34700E-06 5.15720E-06 -7.47270E-06 9.30740E-06 1.33590E-05 -1.61630E-06 -9.82400E-06 9.16380E-06 -1.11130E-06 
9.57170E-06 6.54080E-06 -8.96000E-07 -1.29730E-06 1.58978E-06 -5.48255E-06 -6.57000E-08 -7.84000E-08 -4.45800E-07 
-9.00000E-06 6.73980E-06 -2.91050E-06 5.79010E-06 7.46430E-06 -8.91160E-06 -5.11660E-06 2.16784E-06 -3.74460E-06 
-6.88540E-06 5.17120E-06 -5.37680E-06 9.22790E-06 9.79560E-06 -5.62283E-06 -9.69900E-07 1.96001E-08 2.59440E-06 
6.23330E-06 2.18197E-06 -2.67840E-06 1.16010E-06 9.65680E-06 -1.05528E-05 2.72700E-07 3.72060E-06 -8.30490E-06 
-4.41740E-06 5.95250E-06 -8.21430E-06 -8.19700E-06 7.47970E-06 -5.06607E-06 -9.37500E-06 1.10844E-05 -2.13900E-06 
-2.15410E-06 4.00860E-06 -8.07530E-06 4.21620E-06 1.24106E-06 -3.72830E-06 -6.76550E-06 8.60800E-06 -7.14570E-06 
-3.16530E-06 6.97900E-07 3.39200E-06 -9.83600E-07 6.85960E-06 -9.82870E-06 3.62090E-06 4.72490E-06 -8.57360E-06 
-3.96840E-06 8.70300E-06 -9.23610E-06 -3.25150E-06 6.12000E-07 -2.50480E-06 -4.57300E-06 9.75700E-07 1.87940E-06 
1.63641E-06 5.53990E-06 -9.38920E-06 2.80803E-06 7.33190E-06 -1.00273E-05 -2.75500E-06 8.04000E-08 2.20011E-09 
1.98543E-06 2.30012E-06 -6.73960E-06 1.78588E-06 2.43900E-07 -2.84980E-06 2.48149E-06 8.84900E-07 -4.17690E-06 
1.88900E-07 3.73000E-08 -2.04750E-06 1.35280E-06 3.52300E-07 9.86300E-07 -9.50100E-06 -1.37480E-05 3.21170E-06 
5.25160E-06 -1.66000E-05 2.22910E-06 8.96700E-06 -9.29700E-06 1.35970E-06 -9.24800E-06 -1.44790E-05 -1.15100E-07 
-6.86530E-06 -1.70420E-05 -1.02950E-06 -5.67700E-06 -1.71760E-05 4.38150E-06 -5.77770E-06 -1.66030E-05 -4.31820E-06 
-9.43700E-07 -1.12220E-05 1.00010E-05 -7.72400E-06 -5.38170E-06 5.79500E-06 -6.40280E-06 -9.44100E-06 8.64500E-06 
-7.60300E-06 -1.48110E-05 5.62400E-06 -5.95530E-06 -1.32190E-05 8.27700E-06 -4.69410E-06 -1.60180E-05 6.88900E-06 
9.07430E-06 -7.32380E-06 -5.03100E-07 -4.35370E-06 -1.52340E-05 -7.01850E-06 -2.20660E-06 -1.75380E-05 -5.23906E-06 
-3.73450E-06 -1.84130E-05 -2.12080E-06 -5.12470E-06 -5.67200E-06 8.04600E-06 -2.60710E-06 -1.43000E-05 8.89900E-06 
3.41200E-07 -1.29670E-05 -9.53340E-06 -9.72100E-07 -1.54630E-05 -7.87310E-06 1.49001E-08 -1.87550E-05 -2.24620E-06 
-5.70100E-07 -1.89000E-05 1.63850E-06 8.38380E-06 -1.11340E-05 -4.15970E-06 -8.40000E-06 -1.17580E-05 6.88900E-06 
1.01210E-06 -3.42540E-06 7.56800E-06 -3.15520E-06 -8.30900E-06 9.71100E-06 2.03030E-06 -1.49100E-05 -8.14830E-06 
1.65830E-06 -1.71530E-05 -5.68420E-06 3.23287E-06 -1.79370E-05 -2.79650E-06 -7.63500E-06 -1.63910E-05 2.30600E-06 
7.67000E-07 -1.78650E-05 4.74300E-06 4.20800E-07 -1.59270E-05 7.52300E-06 -2.45350E-06 -2.89540E-06 7.10800E-06 
7.12580E-06 -4.91920E-06 -5.13353E-06 -1.63100E-06 -5.41160E-06 9.01000E-06 2.75716E-06 -1.36780E-05 8.21200E-06 
3.86800E-06 -1.58790E-05 5.54800E-06 4.52550E-06 -1.49610E-05 -6.85010E-06 4.72710E-06 -1.65210E-05 -4.45460E-06 
2.78100E-07 -7.84910E-06 9.82200E-06 2.35663E-06 -1.06370E-05 9.32200E-06 -4.41990E-06 -1.83720E-05 1.44300E-06 
4.66800E-06 -8.68600E-06 8.21400E-06 2.95666E-06 -6.07410E-06 8.60200E-06 5.28340E-06 -1.16230E-05 7.37600E-06 
5.91460E-06 -1.63340E-05 -1.34010E-06 -2.68410E-06 -1.79960E-05 4.70500E-06 7.21360E-06 -8.95600E-06 -6.75220E-06 
4.41440E-06 -3.82760E-06 6.27900E-06 5.90050E-06 -6.15510E-06 6.55800E-06 7.10770E-06 -9.11200E-06 5.84800E-06 
8.25430E-06 -1.10120E-05 3.25540E-06 8.03600E-06 -1.35790E-05 -1.84840E-06 7.51690E-06 -1.41130E-05 1.52270E-06 
-5.51030E-06 -2.86930E-06 5.42400E-06 4.56100E-06 -2.13280E-06 3.68260E-06 6.90530E-06 -4.48560E-06 3.59520E-06 
8.96680E-06 -1.10000E-05 -3.67300E-07 8.53960E-06 -7.58900E-06 3.07060E-06 7.04210E-06 -1.13100E-05 5.44800E-06 
6.73430E-06 -1.43440E-05 -4.49500E-06 -4.05120E-06 -1.15250E-05 9.69100E-06 8.59180E-06 -7.52620E-06 -4.14840E-06 
2.89833E-06 -1.82990E-05 3.42400E-07 -8.22100E-06 -1.49180E-05 -2.95540E-06 1.28700E-07 -1.36770E-05 9.14300E-06 
-9.61900E-06 -1.17220E-05 -2.72410E-06 6.50110E-06 -1.34430E-05 4.98800E-06 5.98870E-06 -1.51420E-05 3.68880E-06 
4.75800E-06 -1.37740E-05 6.77000E-06 -7.29030E-06 -1.35220E-05 -5.60827E-06 3.09079E-06 -1.77150E-05 3.24990E-06 
6.24980E-06 -1.20850E-05 -7.18270E-06 -9.12900E-06 -1.28210E-05 5.27900E-06 -8.91000E-06 -8.68000E-06 6.44400E-06 
2.55359E-06 -6.45750E-06 -9.46790E-06 1.12860E-06 -1.22940E-05 9.38700E-06 -2.27150E-06 -1.65270E-05 7.18500E-06 
7.42980E-06 -6.84920E-06 4.88800E-06 9.11910E-06 -9.45200E-06 -2.33650E-06 -4.92440E-06 -1.08390E-06 2.08440E-06 
-1.01110E-05 -1.07390E-05 4.29120E-06 -1.04260E-05 -8.48400E-06 -2.98800E-07 -6.40870E-06 -1.04150E-05 -7.65230E-06 
7.69810E-06 -4.12660E-06 5.36002E-08 -2.12540E-06 -1.89390E-05 -3.03200E-07 -9.28500E-06 -4.93510E-06 8.09001E-08 
-5.44310E-06 -1.30520E-05 -7.65780E-06 2.50802E-06 -8.41500E-06 9.29800E-06 5.56430E-06 -2.13380E-06 1.10930E-06 
-1.02250E-06 -1.73130E-05 6.19700E-06 1.63939E-06 -1.84130E-05 2.53300E-06 -7.81800E-06 -3.53130E-06 2.80510E-06 
8.48480E-06 -5.89090E-06 1.56420E-06 8.13020E-06 -5.12560E-06 -2.58910E-06 -5.17610E-06 -2.98750E-06 -5.46343E-06 
4.54700E-07 -5.46040E-06 9.03900E-06 -2.86580E-06 -1.14870E-06 4.67400E-06 3.46923E-06 -1.26390E-05 -8.94070E-06 
5.99840E-06 -2.54560E-06 -2.56560E-06 2.97690E-06 -1.20510E-06 -3.90560E-06 -9.18700E-06 -6.43250E-06 -3.26130E-06 
5.49340E-06 -5.95450E-06 -7.73520E-06 -2.97800E-06 -2.46880E-06 -6.48048E-06 -9.79100E-06 -6.97070E-06 3.28620E-06 
2.67570E-06 -2.01460E-06 5.43100E-06 -7.04740E-06 -2.15080E-06 -2.71800E-07 4.97410E-06 -3.21450E-06 -5.86750E-06 
-2.91940E-06 -2.52400E-07 -7.00400E-07 -1.04560E-05 -1.15980E-05 1.03010E-06 -7.28020E-06 -7.42720E-06 7.52800E-06 
-5.30470E-06 -4.50120E-06 -6.95440E-06 -5.29210E-06 -1.80670E-06 -3.52580E-06 -8.27600E-06 -1.12620E-05 -5.40331E-06 
-8.84400E-06 -9.24800E-06 -5.01470E-06 -3.23770E-06 -1.26280E-05 -9.04490E-06 -7.36200E-06 -6.87440E-06 -6.44129E-06 
-7.05830E-06 -4.11570E-06 -4.82233E-06 -7.72500E-07 -1.01970E-05 -1.01539E-05 1.65936E-06 -8.67100E-06 -1.00452E-05 
-5.35700E-07 -3.79680E-06 -8.43990E-06 -9.88000E-06 -8.88300E-06 -2.72900E-06 2.51595E-06 -3.81090E-06 -8.01080E-06 
-4.73060E-06 -7.00350E-06 -8.53610E-06 -3.42990E-06 -9.41600E-06 -9.54500E-06 -5.04440E-06 -9.17400E-07 -7.12700E-07 
-2.26930E-06 -9.00500E-07 -4.26440E-06 -7.98300E-06 -3.58340E-06 -2.47610E-06 -1.05550E-05 -9.44100E-06 2.31030E-06 
2.50698E-06 -6.50700E-07 2.62140E-06 4.50520E-06 -9.30900E-06 -8.98150E-06 -1.05730E-06 -6.94950E-06 -9.74670E-06 
-4.74001E-08 -1.18770E-06 4.96300E-06 -2.99540E-06 -4.57800E-06 -8.36690E-06 1.37200E-07 -2.57000E-08 -2.03430E-06 
9.54700E-07 -5.26690E-06 -9.31890E-06 2.76461E-06 -2.17050E-06 -6.17173E-06 4.78200E-07 -1.69060E-06 -6.05715E-06 
1.94390E-06 -1.08130E-05 -9.87080E-06 7.36260E-06 -6.90260E-06 -6.26201E-06 -1.28840E-06 -1.50300E-07 2.03400E-06 
3.62110E-06 -7.24700E-07 -5.98100E-07 2.97500E-07 -7.65800E-07 -3.85310E-06 1.81897E-06 -1.14500E-07 -1.61130E-06 
1.43970E-06 -2.28800E-07 8.19000E-07 -6.07700E-07 -2.06900E-07 5.12000E-08 
CELLS 2 2268
1105 276 3 0 30 29 3 0 17 23 3 0 4 17 3 0 29 4 3 0 83 67 3 0 67 30 3 0 23 83 3 1 3 4 3 1 6 3 3 1 24 16 3 1 4 24 3 1 75 6 3 1 16 75 3 2 74 87 3 2 50 80 3 2 80 41 3 2 41 64 3 2 79 74 3 2 64 79 3 2 87 50 3 3 6 7 3 3 28 17 3 3 7 28 3 3 17 4 3 4 29 24 3 5 33 46 3 5 108 55 3 5 46 108 3 5 55 56 3 5 56 102 3 5 115 33 3 5 102 115 3 6 72 7 3 6 101 72 3 6 75 101 3 7 73 59 3 7 59 28 3 7 72 73 3 8 59 49 3 8 28 59 3 8 62 28 3 8 61 62 3 8 13 61 3 8 49 13 3 9 14 13 3 9 13 49 3 9 71 10 3 9 10 14 3 9 49 71 3 10 15 14 3 10 93 15 3 10 107 93 3 10 122 107 3 10 71 122 3 11 120 123 3 11 113 114 3 11 114 120 3 11 109 113 3 11 123 109 3 12 25 34 3 12 34 66 3 12 66 89 3 12 65 22 3 12 82 25 3 12 89 65 3 12 22 82 3 13 18 61 3 13 14 18 3 14 15 19 3 14 19 18 3 15 20 27 3 15 27 19 3 15 93 20 3 16 24 32 3 16 32 100 3 16 104 75 3 16 100 104 3 17 28 62 3 17 62 23 3 18 22 61 3 18 19 25 3 18 25 82 3 18 82 22 3 19 26 25 3 19 27 26 3 20 21 40 3 20 40 27 3 20 92 21 3 20 93 92 3 21 98 40 3 21 37 98 3 21 84 37 3 21 92 84 3 22 62 61 3 22 86 62 3 22 65 86 3 23 62 86 3 23 65 31 3 23 86 65 3 23 31 83 3 24 29 32 3 25 26 34 3 26 27 35 3 26 35 42 3 26 42 34 3 27 40 35 3 29 33 32 3 29 106 33 3 29 30 106 3 30 69 81 3 30 67 63 3 30 63 69 3 30 81 106 3 31 67 83 3 31 89 38 3 31 38 63 3 31 65 89 3 31 63 67 3 32 115 100 3 32 33 115 3 33 81 46 3 33 106 81 3 34 42 79 3 34 77 66 3 34 79 77 3 35 44 42 3 35 39 44 3 35 40 39 3 36 48 47 3 36 47 46 3 36 46 69 3 36 41 48 3 36 68 41 3 36 76 68 3 36 69 76 3 37 53 39 3 37 84 90 3 37 39 98 3 37 126 53 3 37 90 131 3 37 131 126 3 38 68 63 3 38 89 66 3 38 64 88 3 38 66 64 3 38 88 68 3 39 53 52 3 39 52 44 3 39 40 98 3 41 88 64 3 41 80 48 3 41 68 88 3 42 44 74 3 42 74 79 3 43 60 54 3 43 78 60 3 43 55 47 3 43 47 78 3 43 117 55 3 43 54 97 3 43 97 117 3 44 52 51 3 44 51 74 3 45 51 58 3 45 50 51 3 45 60 50 3 45 58 103 3 45 103 60 3 46 81 69 3 46 47 108 3 47 48 78 3 47 55 108 3 48 85 78 3 48 80 50 3 48 50 85 3 49 59 70 3 49 70 71 3 50 60 85 3 50 87 51 3 51 87 74 3 51 52 58 3 52 53 58 3 53 126 58 3 54 60 103 3 54 103 139 3 54 139 97 3 55 117 56 3 56 57 105 3 56 117 57 3 56 105 102 3 57 135 128 3 57 128 105 3 57 117 124 3 57 124 137 3 57 137 135 3 58 116 103 3 58 126 116 3 59 73 70 3 60 78 85 3 63 68 76 3 63 76 69 3 64 66 77 3 64 77 79 3 70 73 72 3 70 72 95 3 70 94 71 3 70 95 94 3 71 91 122 3 71 94 91 3 72 101 99 3 72 99 95 3 75 104 101 3 84 96 90 3 84 92 96 3 90 96 113 3 90 130 134 3 90 113 130 3 90 134 131 3 91 107 122 3 91 125 121 3 91 94 125 3 91 111 107 3 91 121 111 3 92 111 96 3 92 93 107 3 92 107 111 3 94 95 125 3 95 129 125 3 95 99 129 3 96 111 114 3 96 114 113 3 97 124 117 3 97 138 136 3 97 136 137 3 97 137 124 3 97 139 110 3 97 110 138 3 99 101 118 3 99 118 127 3 99 127 129 3 100 115 102 3 100 112 104 3 100 102 112 3 101 104 118 3 102 105 112 3 103 116 139 3 104 133 118 3 104 112 133 3 105 128 112 3 109 130 113 3 109 119 135 3 109 137 138 3 109 135 137 3 109 138 130 3 109 123 119 3 110 134 138 3 110 116 134 3 110 139 116 3 111 121 114 3 112 128 133 3 114 121 125 3 114 125 120 3 116 126 134 3 118 133 127 3 119 127 132 3 119 132 128 3 119 123 127 3 119 128 135 3 120 125 129 3 120 129 127 3 120 127 123 3 126 131 134 3 127 133 132 3 128 132 133 3 130 138 134 3 136 138 137 
1161 290 3 140 143 170 3 140 170 150 3 140 214 222 3 140 150 214 3 140 250 143 3 140 222 250 3 141 194 209 3 141 212 204 3 141 177 212 3 141 204 186 3 141 186 194 3 141 209 177 3 142 199 192 3 142 192 198 3 142 198 153 3 142 153 199 3 143 250 207 3 143 207 205 3 143 205 144 3 143 144 170 3 144 182 170 3 144 156 182 3 144 146 156 3 144 205 146 3 145 150 170 3 145 170 182 3 145 182 187 3 145 187 152 3 145 152 150 3 146 205 211 3 146 211 154 3 146 154 155 3 146 155 156 3 147 158 206 3 147 202 158 3 147 166 202 3 147 180 166 3 147 181 180 3 147 206 217 3 147 217 181 3 148 157 195 3 148 233 245 3 148 245 215 3 148 251 157 3 148 195 233 3 148 215 251 3 149 164 151 3 149 215 164 3 149 157 251 3 149 166 157 3 149 202 166 3 149 151 202 3 149 251 215 3 150 151 164 3 150 152 151 3 150 164 214 3 151 158 202 3 151 152 158 3 152 187 218 3 152 218 158 3 153 203 235 3 153 220 203 3 153 235 225 3 153 198 220 3 153 234 199 3 153 225 234 3 154 211 228 3 154 160 155 3 154 228 256 3 154 256 160 3 155 161 156 3 155 168 161 3 155 160 168 3 156 161 226 3 156 226 182 3 157 173 195 3 157 175 173 3 157 166 175 3 158 172 206 3 158 218 172 3 159 279 239 3 159 167 160 3 159 239 167 3 159 160 256 3 159 259 279 3 159 256 259 3 160 167 168 3 161 168 169 3 161 169 204 3 161 204 162 3 161 162 226 3 162 187 182 3 162 204 232 3 162 171 187 3 162 232 171 3 162 182 226 3 163 198 193 3 163 193 201 3 163 203 220 3 163 188 203 3 163 213 188 3 163 201 213 3 163 220 198 3 164 222 214 3 164 215 222 3 165 173 175 3 165 273 173 3 165 175 237 3 165 184 189 3 165 189 246 3 165 246 273 3 165 237 184 3 166 180 175 3 167 178 168 3 167 239 178 3 168 178 179 3 168 179 169 3 169 186 204 3 169 179 186 3 171 231 187 3 171 177 172 3 171 212 177 3 171 172 231 3 171 232 212 3 172 176 206 3 172 177 176 3 172 218 231 3 173 273 238 3 173 238 195 3 174 243 248 3 174 280 243 3 174 235 203 3 174 240 235 3 174 248 240 3 174 203 280 3 175 180 237 3 176 217 206 3 176 185 181 3 176 210 185 3 176 177 210 3 176 181 217 3 177 209 208 3 177 208 210 3 178 239 213 3 178 213 201 3 178 201 179 3 179 201 186 3 180 229 184 3 180 181 229 3 180 184 237 3 181 185 183 3 181 183 229 3 183 185 191 3 183 190 184 3 183 191 190 3 183 184 229 3 184 190 189 3 185 200 191 3 185 210 208 3 185 208 200 3 186 201 193 3 186 193 194 3 187 231 218 3 188 213 271 3 188 271 243 3 188 280 203 3 188 243 280 3 189 190 197 3 189 196 246 3 189 197 196 3 190 219 197 3 190 191 219 3 191 199 219 3 191 200 192 3 191 192 199 3 192 194 198 3 192 208 194 3 192 200 208 3 193 198 194 3 194 208 209 3 195 221 233 3 195 238 221 3 196 197 230 3 196 270 246 3 196 230 270 3 197 234 225 3 197 199 234 3 197 219 199 3 197 225 230 3 204 212 232 3 205 207 211 3 207 250 223 3 207 262 255 3 207 255 254 3 207 254 211 3 207 223 262 3 211 224 228 3 211 254 224 3 213 239 271 3 215 245 222 3 216 243 271 3 216 271 260 3 216 263 243 3 216 272 276 3 216 260 272 3 216 276 263 3 221 249 266 3 221 238 281 3 221 247 233 3 221 266 247 3 221 281 249 3 222 269 250 3 222 245 269 3 223 250 269 3 223 245 227 3 223 227 242 3 223 242 262 3 223 269 245 3 224 256 228 3 224 255 257 3 224 257 264 3 224 265 256 3 224 254 255 3 224 264 265 3 225 235 240 3 225 240 230 3 227 233 247 3 227 245 233 3 227 268 242 3 227 247 268 3 230 240 282 3 230 282 270 3 236 258 253 3 236 253 244 3 236 244 252 3 236 252 258 3 238 273 281 3 239 279 271 3 240 248 241 3 240 241 282 3 241 275 284 3 241 248 277 3 241 277 278 3 241 284 282 3 241 283 275 3 241 278 283 3 242 257 255 3 242 258 257 3 242 268 258 3 242 255 262 3 243 263 248 3 244 278 261 3 244 267 278 3 244 253 267 3 244 274 252 3 244 261 274 3 246 270 273 3 247 266 253 3 247 253 268 3 248 263 277 3 249 275 267 3 249 253 266 3 249 267 253 3 249 281 286 3 249 286 275 3 252 264 257 3 252 257 258 3 252 274 264 3 253 258 268 3 256 265 259 3 259 260 279 3 259 272 260 3 259 265 272 3 260 271 279 3 261 278 263 3 261 276 272 3 261 272 274 3 261 263 276 3 263 278 277 3 264 272 265 3 264 274 272 3 267 283 278 3 267 275 283 3 270 281 273 3 270 282 285 3 270 285 281 3 275 285 284 3 275 286 285 3 281 285 286 3 282 284 285 

CELL_TYPES 2
42
42

CELL_DATA 1
FIELD FieldData 2
Cell_id 1 1 int
1 2
METADATA
INFORMATION 0

Cell_type_id 1 1 int
0 0
METADATA
INFORMATION 0

