# vtk DataFile Version 4.2
vtk output
ASCII
DATASET UNSTRUCTURED_GRID
POINTS 287 float
1.78550E-05 -4.97670E-06 1.90940E-06 1.59070E-05 -7.63170E-06 -4.51935E-06 8.81300E-06 2.61510E-06 8.85000E-06 
1.79960E-05 -4.93190E-06 -4.56748E-06 1.74720E-05 -6.68900E-06 -1.46230E-06 8.10520E-06 -8.97160E-06 2.44630E-06 
1.56380E-05 -5.87940E-06 -7.19960E-06 1.72740E-05 -2.98631E-06 -7.29910E-06 1.87960E-05 2.00050E-06 -4.44860E-06 
1.55300E-05 5.95080E-06 -6.06107E-06 1.29860E-05 7.44600E-06 -6.19721E-06 3.76500E-06 -3.00400E-07 -8.84650E-06 
1.68190E-05 4.63520E-06 4.58000E-06 1.75190E-05 5.21390E-06 -3.90840E-06 1.52240E-05 7.72500E-06 -3.28330E-06 
1.22083E-05 9.28400E-06 -2.99520E-06 1.32080E-05 -9.40020E-06 -4.14030E-06 1.91970E-05 -3.35240E-06 -1.26100E-06 
1.70630E-05 6.47300E-06 -3.02600E-07 1.40930E-05 8.82900E-06 9.58999E-08 8.77390E-06 9.48800E-06 -2.71940E-06 
5.87710E-06 8.56600E-06 -2.43430E-06 1.85790E-05 3.58690E-06 1.38790E-06 1.90280E-05 -1.39090E-06 2.03050E-06 
1.51180E-05 -8.78030E-06 -2.00630E-06 1.53710E-05 7.32800E-06 2.93640E-06 1.20907E-05 8.77000E-06 3.40100E-06 
1.05864E-05 9.73100E-06 2.69000E-07 1.91040E-05 -1.47940E-06 -4.49970E-06 1.53370E-05 -8.02180E-06 1.26440E-06 
1.54110E-05 -6.13430E-06 4.41480E-06 1.74620E-05 -1.13270E-06 5.31500E-06 1.27880E-05 -9.81150E-06 -8.28500E-07 
1.19150E-05 -8.95630E-06 2.47610E-06 1.35330E-05 6.44350E-06 5.98300E-06 8.53630E-06 8.95900E-06 3.17800E-06 
1.02874E-05 -4.18770E-06 7.78500E-06 3.10588E-06 6.59700E-06 -8.53300E-07 1.49220E-05 1.35400E-07 7.80500E-06 
5.22350E-06 8.02200E-06 2.10000E-06 7.26530E-06 9.30400E-06 2.21600E-07 1.01990E-05 -5.85200E-07 9.02300E-06 
9.89770E-06 7.49300E-06 5.96600E-06 3.48781E-06 -4.47970E-06 4.71800E-06 6.50940E-06 7.20500E-06 5.32000E-06 
3.13513E-06 1.89280E-06 6.05300E-06 1.00524E-05 -7.22090E-06 5.35700E-06 6.93240E-06 -5.36360E-06 6.37200E-06 
7.32500E-06 -2.07563E-06 8.20800E-06 1.66890E-05 3.19110E-06 -7.09720E-06 5.64360E-06 1.15640E-06 7.92700E-06 
4.85240E-06 4.44530E-06 6.57400E-06 4.12160E-06 6.20480E-06 4.44990E-06 2.89555E-06 6.09830E-06 2.22200E-06 
1.65400E-06 -2.19064E-06 3.84940E-06 5.49380E-06 -7.13640E-06 3.82370E-06 4.87650E-06 -8.49840E-06 4.50100E-07 
2.48389E-06 -6.54770E-06 -1.63490E-06 2.30397E-06 3.76060E-06 3.95580E-06 1.76070E-05 1.07300E-07 -7.32900E-06 
3.37615E-06 -1.14440E-06 6.29200E-06 1.87500E-05 3.74130E-06 -1.60530E-06 1.95170E-05 5.63500E-07 -1.03940E-06 
1.51140E-05 -3.39676E-06 6.80100E-06 1.22939E-05 2.31200E-06 8.75000E-06 1.84560E-05 1.59150E-06 3.76520E-06 
1.49210E-05 3.58810E-06 7.26200E-06 1.70390E-05 -3.89020E-06 4.59300E-06 1.27310E-05 -2.16581E-06 8.41100E-06 
1.28740E-05 -5.73000E-06 6.46400E-06 1.48330E-05 6.91600E-07 -9.44540E-06 1.37130E-05 4.43000E-06 -8.67500E-06 
1.43750E-05 -3.26985E-06 -9.46560E-06 1.61690E-05 -1.36490E-06 -8.76290E-06 7.87950E-06 5.39440E-06 7.55700E-06 
1.36940E-05 -8.03960E-06 -6.48079E-06 1.28380E-05 -3.98861E-06 7.62600E-06 1.30600E-05 4.66860E-06 7.70900E-06 
5.21150E-06 -3.11589E-06 7.06600E-06 1.09511E-05 5.13920E-06 8.00700E-06 7.84460E-06 1.70100E-07 8.74000E-06 
1.28940E-05 -7.42000E-06 4.61200E-06 1.72220E-05 5.66040E-06 2.27270E-06 1.80660E-05 -2.87651E-06 3.50460E-06 
4.20120E-06 6.97160E-06 -4.04470E-06 5.42240E-06 -1.15290E-06 7.65200E-06 1.91600E-05 1.15950E-06 1.58460E-06 
6.74460E-06 3.51390E-06 7.98800E-06 1.24895E-05 -8.38001E-08 8.78700E-06 1.69750E-05 1.88610E-06 6.14900E-06 
2.27513E-06 4.32420E-06 -4.16950E-06 1.02616E-05 4.47880E-06 -9.67090E-06 7.02490E-06 7.81400E-06 -5.58747E-06 
1.02546E-05 8.77100E-06 -5.39002E-06 1.19495E-05 2.12050E-06 -1.05650E-05 1.16091E-05 -1.02890E-06 -1.07367E-05 
4.48070E-06 5.12050E-06 -6.78060E-06 1.44960E-06 -3.93403E-06 1.19100E-06 5.23240E-06 8.24300E-06 -1.31200E-07 
1.06629E-05 -4.33780E-06 -1.03678E-05 1.02939E-05 -1.01711E-05 -2.93980E-06 1.25770E-05 -6.51040E-06 -8.74890E-06 
7.29680E-06 -9.96780E-06 -1.20050E-06 1.76985E-06 4.94900E-07 4.51000E-06 1.05304E-05 -8.87680E-06 -6.54280E-06 
4.90610E-06 -8.85990E-06 -2.93850E-06 1.40280E-05 -7.80610E-06 3.27280E-06 1.00512E-05 7.16500E-06 -7.63520E-06 
7.47180E-06 -7.39510E-06 4.60500E-06 2.02308E-06 -2.00787E-06 -6.31294E-06 8.08200E-07 -1.78250E-06 -3.22550E-06 
7.40180E-06 5.56520E-06 -8.49900E-06 7.31450E-06 -9.47830E-06 -4.65506E-06 2.81578E-06 1.79100E-06 -6.99090E-06 
5.54060E-06 2.60300E-06 -9.36590E-06 1.00093E-05 -1.01478E-05 -1.89989E-09 1.17780E-06 -3.78489E-06 -3.41010E-06 
2.21846E-06 -4.94280E-06 -5.51871E-06 7.73000E-07 1.58970E-06 1.54010E-06 3.16521E-06 -6.46930E-06 1.90710E-06 
9.38320E-06 -6.85940E-06 -9.05600E-06 3.75210E-06 -4.88590E-06 -7.79400E-06 6.22520E-06 -9.96500E-07 -1.03858E-05 
7.68650E-06 3.52610E-06 -9.82200E-06 1.18514E-05 6.09460E-06 -8.15380E-06 4.01480E-06 -2.47484E-06 -9.05430E-06 
1.06650E-06 -3.86814E-06 -1.38560E-06 8.20000E-07 -9.63800E-07 2.06000E-06 8.81130E-06 1.30650E-06 -1.07634E-05 
1.47680E-06 4.19510E-06 9.37900E-07 6.92200E-06 -4.66060E-06 -9.83220E-06 3.97110E-06 -7.38510E-06 -5.52437E-06 
8.59170E-06 -2.17598E-06 -1.08329E-05 1.12670E-06 7.62900E-07 -4.30390E-06 1.26680E-06 3.78590E-06 -1.63940E-06 
5.45680E-06 -6.32390E-06 -8.04550E-06 7.14820E-06 -7.94950E-06 -7.43970E-06 2.46491E-06 -5.93210E-06 -4.14740E-06 
6.30400E-07 2.09420E-06 -1.97570E-06 6.09600E-07 -7.18500E-07 -1.45110E-06 -1.30410E-05 9.10900E-06 -2.76940E-06 
-1.61520E-05 -2.66737E-06 4.36330E-06 -8.78400E-06 -5.99440E-06 6.21400E-06 -1.38750E-05 7.12500E-06 -5.43105E-06 
-1.62190E-05 4.83250E-06 -5.02110E-06 -1.65720E-05 7.04500E-06 1.79000E-07 -1.56590E-05 1.93270E-06 -7.13660E-06 
-1.11150E-05 6.66340E-06 7.70200E-06 -5.36640E-06 9.72300E-06 2.11200E-07 -9.11700E-06 1.00480E-05 3.50740E-06 
-1.41220E-05 9.05600E-06 2.07800E-07 -1.27320E-05 9.26600E-06 3.31270E-06 -1.54470E-05 7.55600E-06 2.81780E-06 
-6.63750E-06 -6.89930E-06 4.66000E-06 -1.43940E-05 -7.14200E-07 -8.72480E-06 -1.65880E-05 -1.31030E-06 -6.03882E-06 
-1.76080E-05 1.81010E-06 -4.46300E-06 -5.38880E-06 8.92500E-06 3.61020E-06 -1.39510E-05 7.11400E-06 5.66800E-06 
-1.26500E-05 -5.62880E-06 -8.38780E-06 -1.48890E-05 -3.74931E-06 -7.61470E-06 -1.79760E-05 -1.20830E-06 -2.47430E-06 
-1.83980E-05 1.57080E-06 5.04400E-07 -1.02500E-05 -8.67850E-06 9.21700E-07 -1.11800E-05 1.02890E-05 9.12900E-07 
-3.13480E-06 4.16920E-06 6.70200E-06 -8.17200E-06 8.30600E-06 6.33700E-06 -1.42630E-05 -6.37030E-06 -6.04024E-06 
-1.62290E-05 -4.56960E-06 -4.23970E-06 -1.71300E-05 -4.09420E-06 -1.13010E-06 -1.57500E-05 7.40600E-06 -2.52980E-06 
-1.74000E-05 2.21850E-06 3.92130E-06 -1.55990E-05 4.06140E-06 6.13300E-06 -2.45920E-06 6.45920E-06 3.97040E-06 
-3.82080E-06 -7.79820E-06 -6.24700E-07 -5.08170E-06 6.82750E-06 6.45500E-06 -1.34470E-05 2.87530E-06 8.20900E-06 
-1.55730E-05 3.66700E-07 6.41900E-06 -1.40800E-05 -7.40610E-06 -3.47730E-06 -1.57020E-05 -6.20580E-06 -1.41530E-06 
-7.80400E-06 5.71330E-06 8.42100E-06 -1.04870E-05 3.86270E-06 9.14400E-06 -1.77900E-05 4.48050E-06 -1.76360E-06 
-8.46500E-06 1.54100E-06 9.54700E-06 -5.87530E-06 3.05190E-06 8.77400E-06 -1.14010E-05 5.55400E-07 9.12900E-06 
-1.56970E-05 -5.33680E-06 1.81950E-06 -1.74720E-05 4.85390E-06 2.00780E-06 -7.77500E-06 -9.12100E-06 -2.03270E-06 
-3.46910E-06 8.84700E-07 7.66000E-06 -6.04370E-06 -2.84600E-07 8.83900E-06 -8.87800E-06 -1.72000E-06 8.97900E-06 
-1.06720E-05 -4.34180E-06 7.36300E-06 -1.28880E-05 -7.19330E-06 2.76530E-06 -1.35980E-05 -4.81880E-06 5.27700E-06 
-2.52970E-06 7.76800E-06 8.00600E-07 -1.92080E-06 -7.21100E-07 6.19200E-06 -4.05200E-06 -2.73913E-06 7.03000E-06 
-1.03390E-05 -7.07980E-06 4.58100E-06 -7.27680E-06 -4.48140E-06 7.33500E-06 -1.12020E-05 -1.80720E-06 8.61500E-06 
-1.35640E-05 -7.90070E-06 -3.44500E-07 -1.11720E-05 8.69400E-06 5.63300E-06 -6.69830E-06 -8.43270E-06 1.40910E-06 
-1.77010E-05 -1.90010E-06 1.33640E-06 -1.41350E-05 4.62350E-06 -7.31300E-06 -1.34330E-05 5.37160E-06 7.49200E-06 
-1.12200E-05 5.90250E-06 -8.09650E-06 -1.32410E-05 -1.86010E-06 7.64600E-06 -1.47690E-05 -2.33924E-06 6.18400E-06 
-1.35980E-05 6.08000E-07 8.06700E-06 -1.27670E-05 2.30900E-06 -9.27600E-06 -1.71610E-05 -3.95700E-07 3.97300E-06 
-1.12010E-05 -8.90670E-06 -2.80560E-06 -1.22170E-05 9.82100E-06 -7.77400E-07 -8.23400E-06 1.06000E-05 3.60000E-07 
-5.51150E-06 -7.51650E-06 -6.58110E-06 -1.21690E-05 4.90390E-06 8.32700E-06 -1.60690E-05 5.77410E-06 4.32210E-06 
-6.50590E-06 -2.42421E-06 8.34400E-06 -8.32700E-06 -8.14300E-06 2.88770E-06 -6.31100E-07 5.67530E-06 -2.29650E-06 
-1.02250E-05 1.00890E-05 -2.13030E-06 -8.16800E-06 7.94900E-06 -6.50720E-06 -9.92200E-06 4.73900E-07 -1.06054E-05 
-3.29820E-06 -5.36900E-06 4.37230E-06 -1.84050E-05 1.85560E-06 -2.09580E-06 -4.84140E-06 7.56700E-06 -5.72776E-06 
-1.22260E-05 -3.32100E-07 -1.00307E-05 -8.04900E-06 3.62070E-06 9.21300E-06 -1.21770E-06 -2.81700E-06 4.13120E-06 
-1.68510E-05 4.24790E-06 4.15500E-06 -1.78640E-05 4.02000E-07 2.55170E-06 -3.37620E-06 8.20300E-06 -2.55750E-06 
-5.24240E-06 -5.10910E-06 6.04300E-06 -3.91640E-06 -7.06170E-06 2.35530E-06 -2.39650E-06 1.22080E-06 -8.67120E-06 
-5.53650E-06 5.17830E-06 7.90700E-06 -3.74500E-07 5.43580E-06 1.22060E-06 -1.22690E-05 -7.78770E-06 -5.90792E-06 
3.31900E-07 -1.44140E-06 9.46000E-07 -1.36680E-06 -5.21340E-06 1.09620E-06 -3.90000E-08 -3.52377E-06 -2.17850E-06 
-6.02390E-06 5.51650E-06 -8.62370E-06 -4.84040E-06 -8.40370E-06 -3.89850E-06 -1.75100E-06 -8.03900E-07 -8.35030E-06 
-6.82370E-06 9.63200E-06 -3.08310E-06 -1.58310E-06 1.79310E-06 5.95000E-06 -2.10650E-06 6.01130E-06 -5.10634E-06 
-1.82840E-06 -6.35320E-06 -2.69730E-06 4.92500E-07 2.43220E-06 -3.63100E-06 -1.10450E-05 8.59700E-06 -5.20942E-06 
-7.04000E-06 1.01370E-05 2.16660E-06 -3.96130E-06 1.08500E-07 -9.96160E-06 -1.25690E-06 2.73650E-06 -6.94470E-06 
-1.06550E-05 3.28980E-06 -9.74050E-06 -8.77500E-06 3.84470E-06 -9.80500E-06 -1.19840E-05 -2.80813E-06 -9.86900E-06 
-6.41860E-06 2.09200E-06 -1.03642E-05 -3.56940E-06 3.13410E-06 -9.03000E-06 -9.62900E-06 -5.35780E-06 -9.62050E-06 
-7.89000E-06 -7.09670E-06 -8.52370E-06 -2.94510E-06 -4.22130E-06 -8.13230E-06 -8.54400E-06 6.02920E-06 -8.50400E-06 
-2.73180E-06 -6.17550E-06 -5.69781E-06 -6.58120E-06 -1.47800E-06 -1.06407E-05 -9.01500E-06 -2.88916E-06 -1.05346E-05 
-5.46000E-07 3.63410E-06 3.85030E-06 -7.22800E-07 4.36920E-06 -4.81618E-06 -1.56800E-07 1.11800E-07 -6.13346E-06 
-3.27670E-06 5.39860E-06 -7.36520E-06 -8.99700E-06 9.35200E-06 -4.26260E-06 -1.55300E-07 2.61100E-07 3.93190E-06 
-8.73600E-06 -8.64350E-06 -5.60214E-06 4.65500E-07 3.69860E-06 1.54290E-06 -6.30900E-06 -4.93400E-06 -9.49570E-06 
5.77300E-07 1.60250E-06 -1.98800E-07 4.09000E-07 3.08290E-06 -9.86001E-08 6.96800E-07 1.83100E-06 1.73040E-06 
-4.08730E-06 -2.67008E-06 -9.61890E-06 5.98400E-07 -6.06600E-07 -3.64250E-06 -3.97610E-06 -5.87350E-06 -7.57460E-06 
-8.31700E-07 -4.69430E-06 -4.31180E-06 -7.05100E-07 -3.02154E-06 -5.99895E-06 -1.04660E-05 -7.20220E-06 -8.13130E-06 
-5.61120E-06 -8.88760E-06 -1.26560E-06 6.49300E-07 -1.11010E-06 -8.95500E-07 
CELLS 2 2268
1105 276 3 0 30 29 3 0 17 23 3 0 4 17 3 0 29 4 3 0 83 67 3 0 67 30 3 0 23 83 3 1 3 4 3 1 6 3 3 1 24 16 3 1 4 24 3 1 75 6 3 1 16 75 3 2 74 87 3 2 50 80 3 2 80 41 3 2 41 64 3 2 79 74 3 2 64 79 3 2 87 50 3 3 6 7 3 3 28 17 3 3 7 28 3 3 17 4 3 4 29 24 3 5 33 46 3 5 108 55 3 5 46 108 3 5 55 56 3 5 56 102 3 5 115 33 3 5 102 115 3 6 72 7 3 6 101 72 3 6 75 101 3 7 73 59 3 7 59 28 3 7 72 73 3 8 59 49 3 8 28 59 3 8 62 28 3 8 61 62 3 8 13 61 3 8 49 13 3 9 14 13 3 9 13 49 3 9 71 10 3 9 10 14 3 9 49 71 3 10 15 14 3 10 93 15 3 10 107 93 3 10 124 107 3 10 71 124 3 11 122 125 3 11 113 114 3 11 114 122 3 11 109 113 3 11 125 109 3 12 25 34 3 12 34 66 3 12 66 89 3 12 65 22 3 12 82 25 3 12 89 65 3 12 22 82 3 13 18 61 3 13 14 18 3 14 15 19 3 14 19 18 3 15 20 27 3 15 27 19 3 15 93 20 3 16 24 32 3 16 32 100 3 16 104 75 3 16 100 104 3 17 28 62 3 17 62 23 3 18 22 61 3 18 19 25 3 18 25 82 3 18 82 22 3 19 26 25 3 19 27 26 3 20 21 40 3 20 40 27 3 20 92 21 3 20 93 92 3 21 98 40 3 21 37 98 3 21 84 37 3 21 92 84 3 22 62 61 3 22 86 62 3 22 65 86 3 23 62 86 3 23 65 31 3 23 86 65 3 23 31 83 3 24 29 32 3 25 26 34 3 26 27 35 3 26 35 42 3 26 42 34 3 27 40 35 3 29 33 32 3 29 106 33 3 29 30 106 3 30 69 81 3 30 67 63 3 30 63 69 3 30 81 106 3 31 67 83 3 31 89 38 3 31 38 63 3 31 65 89 3 31 63 67 3 32 115 100 3 32 33 115 3 33 81 46 3 33 106 81 3 34 42 79 3 34 77 66 3 34 79 77 3 35 44 42 3 35 39 44 3 35 40 39 3 36 48 47 3 36 47 46 3 36 46 69 3 36 41 48 3 36 68 41 3 36 76 68 3 36 69 76 3 37 53 39 3 37 84 90 3 37 39 98 3 37 129 53 3 37 90 134 3 37 134 129 3 38 68 63 3 38 89 66 3 38 64 88 3 38 66 64 3 38 88 68 3 39 53 52 3 39 52 44 3 39 40 98 3 41 88 64 3 41 80 48 3 41 68 88 3 42 44 74 3 42 74 79 3 43 60 54 3 43 78 60 3 43 55 47 3 43 47 78 3 43 119 55 3 43 54 97 3 43 97 119 3 44 52 51 3 44 51 74 3 45 51 58 3 45 50 51 3 45 60 50 3 45 58 103 3 45 103 60 3 46 81 69 3 46 47 108 3 47 48 78 3 47 55 108 3 48 85 78 3 48 80 50 3 48 50 85 3 49 59 70 3 49 70 71 3 50 60 85 3 50 87 51 3 51 87 74 3 51 52 58 3 52 53 58 3 53 129 58 3 54 60 103 3 54 127 97 3 54 103 127 3 55 119 56 3 56 57 105 3 56 119 57 3 56 105 102 3 57 119 97 3 57 137 131 3 57 131 105 3 57 97 126 3 57 126 116 3 57 116 137 3 58 118 103 3 58 129 118 3 59 73 70 3 60 78 85 3 63 68 76 3 63 76 69 3 64 66 77 3 64 77 79 3 70 73 72 3 70 72 95 3 70 94 71 3 70 95 94 3 71 91 124 3 71 94 91 3 72 101 99 3 72 99 95 3 75 104 101 3 84 96 90 3 84 92 96 3 90 96 113 3 90 133 138 3 90 113 133 3 90 138 134 3 91 107 124 3 91 128 123 3 91 94 128 3 91 111 107 3 91 123 111 3 92 111 96 3 92 93 107 3 92 107 111 3 94 95 128 3 95 132 128 3 95 99 132 3 96 111 114 3 96 114 113 3 97 139 126 3 97 127 139 3 99 101 120 3 99 120 130 3 99 130 132 3 100 115 102 3 100 112 104 3 100 102 112 3 101 104 120 3 102 105 112 3 103 118 127 3 104 136 120 3 104 112 136 3 105 131 112 3 109 133 113 3 109 121 117 3 109 116 110 3 109 117 116 3 109 110 133 3 109 125 121 3 110 116 139 3 110 139 133 3 111 123 114 3 112 131 136 3 114 123 128 3 114 128 122 3 116 126 139 3 116 117 137 3 117 121 131 3 117 131 137 3 118 138 139 3 118 129 138 3 118 139 127 3 120 136 130 3 121 130 135 3 121 135 131 3 121 125 130 3 122 128 132 3 122 132 130 3 122 130 125 3 129 134 138 3 130 136 135 3 131 135 136 3 133 139 138 
1161 290 3 140 143 170 3 140 170 150 3 140 214 222 3 140 150 214 3 140 251 143 3 140 222 251 3 141 194 209 3 141 212 204 3 141 177 212 3 141 204 186 3 141 186 194 3 141 209 177 3 142 199 192 3 142 192 198 3 142 198 153 3 142 153 199 3 143 251 207 3 143 207 205 3 143 205 144 3 143 144 170 3 144 182 170 3 144 156 182 3 144 146 156 3 144 205 146 3 145 150 170 3 145 170 182 3 145 182 187 3 145 187 152 3 145 152 150 3 146 205 211 3 146 211 154 3 146 154 155 3 146 155 156 3 147 158 206 3 147 202 158 3 147 166 202 3 147 180 166 3 147 181 180 3 147 206 217 3 147 217 181 3 148 157 195 3 148 233 246 3 148 246 215 3 148 252 157 3 148 195 233 3 148 215 252 3 149 164 151 3 149 215 164 3 149 157 252 3 149 166 157 3 149 202 166 3 149 151 202 3 149 252 215 3 150 151 164 3 150 152 151 3 150 164 214 3 151 158 202 3 151 152 158 3 152 187 218 3 152 218 158 3 153 203 235 3 153 220 203 3 153 235 225 3 153 198 220 3 153 234 199 3 153 225 234 3 154 211 228 3 154 160 155 3 154 228 257 3 154 257 160 3 155 161 156 3 155 168 161 3 155 160 168 3 156 161 226 3 156 226 182 3 157 173 195 3 157 175 173 3 157 166 175 3 158 172 206 3 158 218 172 3 159 284 239 3 159 167 160 3 159 239 167 3 159 160 257 3 159 260 284 3 159 257 260 3 160 167 168 3 161 168 169 3 161 169 204 3 161 204 162 3 161 162 226 3 162 187 182 3 162 204 232 3 162 171 187 3 162 232 171 3 162 182 226 3 163 198 193 3 163 193 201 3 163 203 220 3 163 188 203 3 163 213 188 3 163 201 213 3 163 220 198 3 164 222 214 3 164 215 222 3 165 173 175 3 165 267 173 3 165 175 237 3 165 184 189 3 165 189 247 3 165 247 267 3 165 237 184 3 166 180 175 3 167 178 168 3 167 239 178 3 168 178 179 3 168 179 169 3 169 186 204 3 169 179 186 3 171 231 187 3 171 177 172 3 171 212 177 3 171 172 231 3 171 232 212 3 172 176 206 3 172 177 176 3 172 218 231 3 173 267 238 3 173 238 195 3 174 244 249 3 174 285 244 3 174 235 203 3 174 241 235 3 174 249 241 3 174 203 285 3 175 180 237 3 176 217 206 3 176 185 181 3 176 210 185 3 176 177 210 3 176 181 217 3 177 209 208 3 177 208 210 3 178 239 213 3 178 213 201 3 178 201 179 3 179 201 186 3 180 229 184 3 180 181 229 3 180 184 237 3 181 185 183 3 181 183 229 3 183 185 191 3 183 190 184 3 183 191 190 3 183 184 229 3 184 190 189 3 185 200 191 3 185 210 208 3 185 208 200 3 186 201 193 3 186 193 194 3 187 231 218 3 188 213 273 3 188 273 244 3 188 285 203 3 188 244 285 3 189 190 197 3 189 196 247 3 189 197 196 3 190 219 197 3 190 191 219 3 191 199 219 3 191 200 192 3 191 192 199 3 192 194 198 3 192 208 194 3 192 200 208 3 193 198 194 3 194 208 209 3 195 221 233 3 195 238 221 3 196 197 230 3 196 272 247 3 196 230 272 3 197 234 225 3 197 199 234 3 197 219 199 3 197 225 230 3 204 212 232 3 205 207 211 3 207 251 223 3 207 263 256 3 207 256 255 3 207 255 211 3 207 223 263 3 211 224 228 3 211 255 224 3 213 239 273 3 215 246 222 3 216 244 273 3 216 273 261 3 216 264 244 3 216 275 281 3 216 261 275 3 216 281 264 3 221 250 268 3 221 248 233 3 221 268 248 3 221 277 250 3 221 238 277 3 222 271 251 3 222 246 271 3 223 251 271 3 223 246 227 3 223 227 243 3 223 243 263 3 223 271 246 3 224 257 228 3 224 256 258 3 224 258 265 3 224 266 257 3 224 255 256 3 224 265 266 3 225 235 241 3 225 241 230 3 227 233 248 3 227 246 233 3 227 270 243 3 227 248 270 3 230 241 240 3 230 240 272 3 236 259 254 3 236 254 245 3 236 245 253 3 236 253 259 3 238 274 277 3 238 267 274 3 239 284 273 3 240 278 272 3 240 241 242 3 240 276 278 3 240 286 276 3 240 242 286 3 241 249 242 3 242 283 280 3 242 249 282 3 242 282 283 3 242 280 286 3 243 258 256 3 243 259 258 3 243 270 259 3 243 256 263 3 244 264 249 3 245 283 262 3 245 269 283 3 245 254 269 3 245 279 253 3 245 262 279 3 247 272 267 3 248 268 254 3 248 254 270 3 249 264 282 3 250 280 269 3 250 276 280 3 250 254 268 3 250 269 254 3 250 277 276 3 253 265 258 3 253 258 259 3 253 279 265 3 254 259 270 3 257 266 260 3 260 261 284 3 260 275 261 3 260 266 275 3 261 273 284 3 262 283 264 3 262 281 275 3 262 275 279 3 262 264 281 3 264 283 282 3 265 275 266 3 265 279 275 3 267 272 278 3 267 278 274 3 269 280 283 3 274 278 277 3 276 277 278 3 276 286 280 

CELL_TYPES 2
42
42

CELL_DATA 1
FIELD FieldData 2
Cell_id 1 1 int
1 2
METADATA
INFORMATION 0

Cell_type_id 1 1 int
0 0
METADATA
INFORMATION 0

