<VTKFile type="UnstructuredGrid" version="1.0" byte_order="LittleEndian" header_type="UInt64">
  <UnstructuredGrid>
    <FieldData>
      <DataArray type="Float64" Name="TimeValue" NumberOfTuples="1" format="ascii" RangeMin="2" RangeMax="2">
        2
      </DataArray>
    </FieldData>
    <Piece NumberOfPoints="2422" NumberOfCells="4">
      <PointData>
        <DataArray type="Int64" IdType="1" Name="vtkOriginalPointIds" format="ascii" RangeMin="0" RangeMax="1209">
          0 1 2 3 4 5
          6 7 8 9 10 11
          12 13 14 15 16 17
          18 19 20 21 22 23
          24 25 26 27 28 29
          30 31 32 33 34 35
          36 37 38 39 40 41
          42 43 44 45 46 47
          48 49 50 51 52 53
          54 55 56 57 58 59
          60 61 62 63 64 65
          66 67 68 69 70 71
          72 73 74 75 76 77
          78 79 80 81 82 83
          84 85 86 87 88 89
          90 91 92 93 94 95
          96 97 98 99 100 101
          102 103 104 105 106 107
          108 109 110 111 112 113
          114 115 116 117 118 119
          120 121 122 123 124 125
          126 127 128 129 130 131
          132 133 134 135 136 137
          138 139 140 141 142 143
          144 145 146 147 148 149
          150 151 152 153 154 155
          156 157 158 159 160 161
          162 163 164 165 166 167
          168 169 170 171 172 173
          174 175 176 177 178 179
          180 181 182 183 184 185
          186 187 188 189 190 191
          192 193 194 195 196 197
          198 199 200 201 202 203
          204 205 206 207 208 209
          210 211 212 213 214 215
          216 217 218 219 220 221
          222 223 224 225 226 227
          228 229 230 231 232 233
          234 235 236 237 238 239
          240 241 242 243 244 245
          246 247 248 249 250 251
          252 253 254 255 256 257
          258 259 260 261 262 263
          264 265 266 267 268 269
          270 271 272 273 274 275
          276 277 278 279 280 281
          282 283 284 285 286 287
          288 289 290 291 292 293
          294 295 296 297 298 299
          300 301 302 303 304 305
          306 307 308 309 310 311
          312 313 314 315 316 317
          318 319 320 321 322 323
          324 325 326 327 328 329
          330 331 332 333 334 335
          336 337 338 339 340 341
          342 343 344 345 346 347
          348 349 350 351 352 353
          354 355 356 357 358 359
          360 361 362 363 364 365
          366 367 368 369 370 371
          372 373 374 375 376 377
          378 379 380 381 382 383
          384 385 386 387 388 389
          390 391 392 393 394 395
          396 397 398 399 400 401
          402 403 404 405 406 407
          408 409 410 411 412 413
          414 415 416 417 418 419
          420 421 422 423 424 425
          426 427 428 429 430 431
          432 433 434 435 436 437
          438 439 440 441 442 443
          444 445 446 447 448 449
          450 451 452 453 454 455
          456 457 458 459 460 461
          462 463 464 465 466 467
          468 469 470 471 472 473
          474 475 476 477 478 479
          480 481 482 483 484 485
          486 487 488 489 490 491
          492 493 494 495 496 497
          498 499 500 501 502 503
          504 505 506 507 508 509
          510 511 512 513 514 515
          516 517 518 519 520 521
          522 523 524 525 526 527
          528 529 530 531 532 533
          534 535 536 537 538 539
          540 541 542 543 544 545
          546 547 548 549 550 551
          552 553 554 555 556 557
          558 559 560 561 562 563
          564 565 566 567 568 569
          570 571 572 573 574 575
          576 577 578 579 580 581
          582 583 584 585 586 587
          588 589 590 591 592 593
          594 595 596 597 598 599
          600 601 602 603 604 605
          0 1 2 3 4 5
          6 7 8 9 10 11
          12 13 14 15 16 17
          18 19 20 21 22 23
          24 25 26 27 28 29
          30 31 32 33 34 35
          36 37 38 39 40 41
          42 43 44 45 46 47
          48 49 50 51 52 53
          54 55 56 57 58 59
          60 61 62 63 64 65
          66 67 68 69 70 71
          72 73 74 75 76 77
          78 79 80 81 82 83
          84 85 86 87 88 89
          90 91 92 93 94 95
          96 97 98 99 100 101
          102 103 104 105 106 107
          108 109 110 111 112 113
          114 115 116 117 118 119
          120 121 122 123 124 125
          126 127 128 129 130 131
          132 133 134 135 136 137
          138 139 140 141 142 143
          144 145 146 147 148 149
          150 151 152 153 154 155
          156 157 158 159 160 161
          162 163 164 165 166 167
          168 169 170 171 172 173
          174 175 176 177 178 179
          180 181 182 183 184 185
          186 187 188 189 190 191
          192 193 194 195 196 197
          198 199 200 201 202 203
          204 205 206 207 208 209
          210 211 212 213 214 215
          216 217 218 219 220 221
          222 223 224 225 226 227
          228 229 230 231 232 233
          234 235 236 237 238 239
          240 241 242 243 244 245
          246 247 248 249 250 251
          252 253 254 255 256 257
          258 259 260 261 262 263
          264 265 266 267 268 269
          270 271 272 273 274 275
          276 277 278 279 280 281
          282 283 284 285 286 287
          288 289 290 291 292 293
          294 295 296 297 298 299
          300 301 302 303 304 305
          306 307 308 309 310 311
          312 313 314 315 316 317
          318 319 320 321 322 323
          324 325 326 327 328 329
          330 331 332 333 334 335
          336 337 338 339 340 341
          342 343 344 345 346 347
          348 349 350 351 352 353
          354 355 356 357 358 359
          360 361 362 363 364 365
          366 367 368 369 370 371
          372 373 374 375 376 377
          378 379 380 381 382 383
          384 385 386 387 388 389
          390 391 392 393 394 395
          396 397 398 399 400 401
          402 403 404 405 406 407
          408 409 410 411 412 413
          414 415 416 417 418 419
          420 421 422 423 424 425
          426 427 428 429 430 431
          432 433 434 435 436 437
          438 439 440 441 442 443
          444 445 446 447 448 449
          450 451 452 453 454 455
          456 457 458 459 460 461
          462 463 464 465 466 467
          468 469 470 471 472 473
          474 475 476 477 478 479
          480 481 482 483 484 485
          486 487 488 489 490 491
          492 493 494 495 496 497
          498 499 500 501 502 503
          504 505 506 507 508 509
          510 511 512 513 514 515
          516 517 518 519 520 521
          522 523 524 525 526 527
          528 529 530 531 532 533
          534 535 536 537 538 539
          540 541 542 543 544 545
          546 547 548 549 550 551
          552 553 554 555 556 557
          558 559 560 561 562 563
          564 565 566 567 568 569
          570 571 572 573 574 575
          576 577 578 579 580 581
          582 583 584 585 586 587
          588 589 590 591 592 593
          594 595 596 597 598 599
          600 601 602 603 604 605
          0 1 2 3 4 5
          6 7 8 9 10 11
          12 13 14 15 16 17
          18 19 20 21 22 23
          24 25 26 27 28 29
          30 31 32 33 34 35
          36 37 38 39 40 41
          42 43 44 45 46 47
          48 49 50 51 52 53
          54 55 56 57 58 59
          60 61 62 63 64 65
          66 67 68 69 70 71
          72 73 74 75 76 77
          78 79 80 81 82 83
          84 85 86 87 88 89
          90 91 92 93 94 95
          96 97 98 99 100 101
          102 103 104 105 106 107
          108 109 110 111 112 113
          114 115 116 117 118 119
          120 121 122 123 124 125
          126 127 128 129 130 131
          132 133 134 135 136 137
          138 139 140 141 142 143
          144 145 146 147 148 149
          150 151 152 153 154 155
          156 157 158 159 160 161
          162 163 164 165 166 167
          168 169 170 171 172 173
          174 175 176 177 178 179
          180 181 182 183 184 185
          186 187 188 189 190 191
          192 193 194 195 196 197
          198 199 200 201 202 203
          204 205 206 207 208 209
          210 211 212 213 214 215
          216 217 218 219 220 221
          222 223 224 225 226 227
          228 229 230 231 232 233
          234 235 236 237 238 239
          240 241 242 243 244 245
          246 247 248 249 250 251
          252 253 254 255 256 257
          258 259 260 261 262 263
          264 265 266 267 268 269
          270 271 272 273 274 275
          276 277 278 279 280 281
          282 283 284 285 286 287
          288 289 290 291 292 293
          294 295 296 297 298 299
          300 301 302 303 304 305
          306 307 308 309 310 311
          312 313 314 315 316 317
          318 319 320 321 322 323
          324 325 326 327 328 329
          330 331 332 333 334 335
          336 337 338 339 340 341
          342 343 344 345 346 347
          348 349 350 351 352 353
          354 355 356 357 358 359
          360 361 362 363 364 365
          366 367 368 369 370 371
          372 373 374 375 376 377
          378 379 380 381 382 383
          384 385 386 387 388 389
          390 391 392 393 394 395
          396 397 398 399 400 401
          402 403 404 405 406 407
          408 409 410 411 412 413
          414 415 416 417 418 419
          420 421 422 423 424 425
          426 427 428 429 430 431
          432 433 434 435 436 437
          438 439 440 441 442 443
          444 445 446 447 448 449
          450 451 452 453 454 455
          456 457 458 459 460 461
          462 463 464 465 466 467
          468 469 470 471 472 473
          474 475 476 477 478 479
          480 481 482 483 484 485
          486 487 488 489 490 491
          492 493 494 495 496 497
          498 499 500 501 502 503
          504 505 506 507 508 509
          510 511 512 513 514 515
          516 517 518 519 520 521
          522 523 524 525 526 527
          528 529 530 531 532 533
          534 535 536 537 538 539
          540 541 542 543 544 545
          546 547 548 549 550 551
          552 553 554 555 556 557
          558 559 560 561 562 563
          564 565 566 567 568 569
          570 571 572 573 574 575
          576 577 578 579 580 581
          582 583 584 585 586 587
          588 589 590 591 592 593
          594 595 596 597 598 599
          600 601 602 603 604 605
          606 607 608 609 610 611
          612 613 614 615 616 617
          618 619 620 621 622 623
          624 625 626 627 628 629
          630 631 632 633 634 635
          636 637 638 639 640 641
          642 643 644 645 646 647
          648 649 650 651 652 653
          654 655 656 657 658 659
          660 661 662 663 664 665
          666 667 668 669 670 671
          672 673 674 675 676 677
          678 679 680 681 682 683
          684 685 686 687 688 689
          690 691 692 693 694 695
          696 697 698 699 700 701
          702 703 704 705 706 707
          708 709 710 711 712 713
          714 715 716 717 718 719
          720 721 722 723 724 725
          726 727 728 729 730 731
          732 733 734 735 736 737
          738 739 740 741 742 743
          744 745 746 747 748 749
          750 751 752 753 754 755
          756 757 758 759 760 761
          762 763 764 765 766 767
          768 769 770 771 772 773
          774 775 776 777 778 779
          780 781 782 783 784 785
          786 787 788 789 790 791
          792 793 794 795 796 797
          798 799 800 801 802 803
          804 805 806 807 808 809
          810 811 812 813 814 815
          816 817 818 819 820 821
          822 823 824 825 826 827
          828 829 830 831 832 833
          834 835 836 837 838 839
          840 841 842 843 844 845
          846 847 848 849 850 851
          852 853 854 855 856 857
          858 859 860 861 862 863
          864 865 866 867 868 869
          870 871 872 873 874 875
          876 877 878 879 880 881
          882 883 884 885 886 887
          888 889 890 891 892 893
          894 895 896 897 898 899
          900 901 902 903 904 905
          906 907 908 909 910 911
          912 913 914 915 916 917
          918 919 920 921 922 923
          924 925 926 927 928 929
          930 931 932 933 934 935
          936 937 938 939 940 941
          942 943 944 945 946 947
          948 949 950 951 952 953
          954 955 956 957 958 959
          960 961 962 963 964 965
          966 967 968 969 970 971
          972 973 974 975 976 977
          978 979 980 981 982 983
          984 985 986 987 988 989
          990 991 992 993 994 995
          996 997 998 999 1000 1001
          1002 1003 1004 1005 1006 1007
          1008 1009 1010 1011 1012 1013
          1014 1015 1016 1017 1018 1019
          1020 1021 1022 1023 1024 1025
          1026 1027 1028 1029 1030 1031
          1032 1033 1034 1035 1036 1037
          1038 1039 1040 1041 1042 1043
          1044 1045 1046 1047 1048 1049
          1050 1051 1052 1053 1054 1055
          1056 1057 1058 1059 1060 1061
          1062 1063 1064 1065 1066 1067
          1068 1069 1070 1071 1072 1073
          1074 1075 1076 1077 1078 1079
          1080 1081 1082 1083 1084 1085
          1086 1087 1088 1089 1090 1091
          1092 1093 1094 1095 1096 1097
          1098 1099 1100 1101 1102 1103
          1104 1105 1106 1107 1108 1109
          1110 1111 1112 1113 1114 1115
          1116 1117 1118 1119 1120 1121
          1122 1123 1124 1125 1126 1127
          1128 1129 1130 1131 1132 1133
          1134 1135 1136 1137 1138 1139
          1140 1141 1142 1143 1144 1145
          1146 1147 1148 1149 1150 1151
          1152 1153 1154 1155 1156 1157
          1158 1159 1160 1161 1162 1163
          1164 1165 1166 1167 1168 1169
          1170 1171 1172 1173 1174 1175
          1176 1177 1178 1179 1180 1181
          1182 1183 1184 1185 1186 1187
          1188 1189 1190 1191 1192 1193
          1194 1195 1196 1197 1198 1199
          1200 1201 1202 1203 1204 1205
          1206 1207 1208 1209
        </DataArray>
      </PointData>
      <CellData>
        <DataArray type="Float32" Name="cell_area" format="ascii" RangeMin="1.1959999657307208e-9" RangeMax="1.197000054631303e-9">
          1.197e-9 1.197e-9 1.196e-9 1.197e-9
        </DataArray>
        <DataArray type="Float32" Name="cell_division_vol" format="ascii" RangeMin="1.8999999327768552e-14" RangeMax="1.8999999327768552e-14">
          1.9e-14 1.9e-14 1.9e-14 1.9e-14
        </DataArray>
        <DataArray type="Float32" Name="cell_growth_rate" format="ascii" RangeMin="0" RangeMax="0">
          0 0 0 0
        </DataArray>
        <DataArray type="Int32" Name="cell_id" format="ascii" RangeMin="0" RangeMax="1">
          1 1 0 1
        </DataArray>
        <DataArray type="Int32" Name="cell_is_static" format="ascii" RangeMin="0" RangeMax="0">
          0 0 0 0
        </DataArray>
        <DataArray type="Float32" Name="cell_pressure" format="ascii" RangeMin="39.81999969482422" RangeMax="41.02000045776367">
          41.02 41.02 39.82 41.02
        </DataArray>
        <DataArray type="Int32" Name="cell_type_id" format="ascii" RangeMin="0" RangeMax="0">
          0 0 0 0
        </DataArray>
        <DataArray type="Float32" Name="cell_volume" format="ascii" RangeMin="3.8759998967461025e-15" RangeMax="3.876999819140336e-15">
          3.877e-15 3.877e-15 3.876e-15 3.877e-15
        </DataArray>
        <DataArray type="Float32" Name="target_volume" format="ascii" RangeMin="3.876999819140336e-15" RangeMax="3.8780001650510435e-15">
          3.878e-15 3.878e-15 3.877e-15 3.878e-15
        </DataArray>
        <DataArray type="Int64" IdType="1" Name="vtkOriginalCellIds" format="ascii" RangeMin="0" RangeMax="1">
          0 0 0 1
        </DataArray>
      </CellData>
      <Points>
        <DataArray type="Float32" Name="Points" NumberOfComponents="3" format="ascii" RangeMin="7.27578955709521e-7" RangeMax="0.000026838684628979342">
          -0.000004679947 -0.000008495258 -0.0000031035 -0.0000031847474 -0.000007864542 0.0000014253
          -0.000004104472 -0.000007902823 -4.0317e-7 -0.0000039862402 -0.000007901656 -0.0000017683
          -0.000003096131 -0.00000786633 -0.0000028325 -0.0000031409866 -0.000007702196 3.4279e-7
          -0.000002191726 -0.000007922321 -0.0000041736 0.000009354101 -0.000018065555 -6.2576e-7
          -0.00000630942 -0.00002441007 0.0000023491 -0.000001330795 -0.000007905314 0.0000028434
          6.1805866e-7 -0.000008751646 -0.0000065492 -6.911418e-7 -0.000007745243 -0.0000040447
          0.000004922757 -0.000023213344 -0.0000058213 -3.583246e-8 -0.0000077239 0.0000022025
          2.1139722e-7 -0.0000075621238 8.1693e-7 3.9340233e-9 -0.000008089715 -0.0000054301
          0.000001452675 -0.00000766962 0.0000014354 -0.0000015402259 -0.0000075671073 -0.0000018843
          0.0000010855265 -0.000026119033 -0.0000025988 7.8517826e-7 -0.000007714031 -0.0000042809
          0.0000025904046 -0.000007684993 4.2101e-7 -0.000006582037 -0.00002211919 0.0000056105
          0.0000017775988 -0.0000075672074 -0.000002797 0.0000023144814 -0.000007909779 -0.0000042762
          0.0000032575385 -0.000007840515 -0.0000030036 -0.000005128817 -0.000008630015 0.0000012937
          -0.0000052125683 -0.000008526855 1.0818e-7 -0.0000016204569 -0.000007541832 -2.8399e-7
          -0.0000045140014 -0.000009284497 -0.000005067 -0.0000043141354 -0.000008463411 0.0000022838
          -0.0000034812929 -0.000008338336 -0.0000043305 0.0000063366338 -0.000009843956 6.964e-7
          -0.0000016320263 -0.000009413997 -0.000007022 -0.0000019577 -0.000008618127 0.0000043814
          -8.480764e-7 -0.000008667062 -0.0000063174 -8.6160355e-8 -0.000008338401 0.0000040628
          0.0000013463149 -0.000008741404 0.0000045025 0.0000016547768 -0.000008176181 0.0000032136
          0.000002402626 -0.000008909532 0.000004269 -0.000006636085 -0.0000111673035 0.0000042924
          0.000002021812 -0.0000090046 -0.0000066016 0.0000033955191 -0.0000088260995 0.0000034027
          0.0000028905213 -0.00000808712 0.0000019724 0.000003977981 -0.000008227437 8.2727e-7
          0.000003553795 -0.00000824098 -0.000004177 0.0000030840101 -0.000008619245 -0.0000054915
          0.0000040870555 -0.000008640292 0.0000021429 -0.0000063675416 -0.000011725472 -0.0000059167
          0.0000044764524 -0.000008415635 -0.0000032802 0.000004497104 -0.000008872343 -0.0000046554
          0.0000052203177 -0.000008711115 -0.0000022225 -0.000005766514 -0.000009197116 0.0000020532
          -0.000006070011 -0.0000091050815 7.3963e-7 -0.000006182953 -0.000009134501 -6.0073e-7
          -0.0000051563024 -0.000009364452 0.0000034423 -0.0000055951846 -0.000009501562 -0.0000039942
          -3.01673e-8 -0.000019133713 -0.000010161 -0.0000032027604 -0.0000095435935 0.0000052587
          0.000008074988 -0.000021119056 -0.000003455 -0.000001923062 -0.000009512613 0.0000056734
          -6.684126e-7 -0.000009182666 0.0000054226 -2.1337324e-7 -0.000009638323 -0.0000075621
          -4.6021202e-7 -0.000010735806 -0.0000084469 6.514586e-7 -0.000009122126 0.0000052535
          0.000001166728 -0.000009532894 -0.0000073948 0.000003174709 -0.000012199341 -0.0000089055
          0.0000023737146 -0.000009967035 -0.0000075817 0.000003189367 -0.000009452856 -0.0000066554
          -0.000009220699 -0.00002069641 -7.9965e-7 0.000005162798 -0.000009043935 0.0000014317
          -4.1761285e-7 -0.00002605245 -0.0000031934 0.00000569822 -0.000009316015 -0.0000035711
          0.0000065210356 -0.000009792089 -6.6013e-7 0.0000061974083 -0.000009433064 -0.0000018973
          -0.0000068703043 -0.000009947335 0.0000013274 -0.0000069058246 -0.000009789778 1.803e-7
          -0.0000071588847 -0.000010033158 -0.0000010013 -0.0000065037098 -0.000010195792 0.0000029564
          -0.0000066887415 -0.000010447403 -0.0000037572 -0.0000058498727 -0.000010443324 -0.0000051222
          -0.000005639026 -0.00001026906 0.0000043235 -0.000005013878 -0.0000106922 -0.0000063339
          -0.000009590987 -0.000015012571 0.0000014184 -0.000003997693 -0.000010335919 0.0000057837
          -0.0000026960174 -0.000010455764 0.0000064835 -0.000007656017 -0.000023164308 -0.0000012632
          -0.0000016918963 -0.000011063491 0.0000071905 -0.0000011295817 -0.0000101113865 0.0000064708
          5.027855e-7 -0.000010007454 0.000006306 0.0000010817203 -0.000010635032 -0.0000084071
          0.0000027114836 -0.000011094934 -0.0000084032 0.000003367771 -0.0000097593165 0.0000047976
          0.00000389637 -0.000010443486 -0.0000073178 0.0000044090066 -0.000009891158 0.0000040887
          0.0000059949894 -0.0000101151445 0.0000022407 0.000005270711 -0.000010661354 -0.0000064475
          0.000006750037 -0.000010169227 -0.0000028693 0.0000019409606 -0.000016030432 -0.000010335
          0.000007242588 -0.000010686452 -2.6683e-8 0.0000067828964 -0.000017651839 -0.0000077877
          -0.000007813401 -0.000010809174 2.8891e-7 -0.000007948903 -0.000011037841 -0.0000011207
          -0.0000073831634 -0.000011289851 0.0000031996 -0.000007644949 -0.0000109825 0.0000019118
          -0.0000025587706 -0.000011087959 -0.0000082016 -0.000006875832 -0.000011373597 -0.0000048515
          -0.000006190369 -0.00001606263 0.0000075657 -0.000005367099 -0.000011187729 0.0000056329
          0.0000025030938 -0.000024156365 0.0000053722 -0.0000039622646 -0.000011212916 0.000006595
          -0.000008185773 -0.000012114464 0.0000026848 -3.6388084e-7 -0.000011011813 0.000007243
          -0.0000014119069 -0.000011450856 -0.0000087904 9.521497e-7 -0.000011146165 0.0000071563
          0.0000019761535 -0.000010737279 0.000006557 0.0000032329483 -0.000010697993 0.0000059042
          0.0000045409747 -0.000010824921 0.000005056 0.0000040908476 -0.00001174319 -0.0000082243
          -0.000008460947 -0.000021939652 0.0000023106 0.0000049953082 -0.000011416826 -0.0000073624
          0.0000064856495 -0.0000110595965 0.0000028318 0.0000061819724 -0.000010959533 -0.0000056591
          0.000007867611 -0.000011478522 -8.3869e-7 0.000007264367 -0.000010573724 -0.000001578
          0.000007393297 -0.000010967764 -0.0000028515 -0.0000056402027 -0.000024444736 -0.0000030042
          0.0000048907964 -0.000015524376 0.0000072623 -0.000008545828 -0.000012053292 0.0000012016
          -0.000008438087 -0.0000120726445 -0.0000020722 -0.0000075924722 -0.00001219871 0.0000040228
          -0.000007794112 -0.000011871547 -0.000003741 -0.0000073360443 -0.000012547473 -0.0000053026
          -0.000006729722 -0.000012279649 0.0000053153 0.0000019723964 -0.0000096325375 0.0000054942
          -0.000005901816 -0.000012557625 0.0000063174 0.000005051957 -0.000021010492 -0.0000078978
          -0.000004641079 -0.000012439254 0.0000071113 -0.000004520299 -0.000012393611 -0.0000079773
          -0.0000062232784 -0.000015114501 -0.0000077469 -0.0000034217026 -0.000012150823 -0.0000084544
          -0.000002335158 -0.000012153205 -0.0000089042 -0.0000025648874 -0.000008806743 -0.0000058782
          4.3173577e-7 -0.000011949417 0.0000077953 -0.0000076721635 -0.000019956917 -0.0000056483
          0.0000030010758 -0.000011785949 0.0000068683 0.0000074166524 -0.000014086449 0.0000040838
          0.0000043306813 -0.000011949146 0.0000061419 0.0000056716844 -0.000012129255 0.0000050576
          0.0000052648975 -0.000012394613 -0.0000078553 0.0000063685957 -0.000011699071 0.0000037785
          0.000006229858 -0.000012001297 -0.0000066811 0.0000065403574 -0.000016099057 -0.0000080797
          0.00000711567 -0.000012009087 0.0000029091 0.0000071263617 -0.000011154793 0.0000016499
          0.00000798153 -0.000011952735 3.8717e-7 0.0000071466193 -0.000011881029 -0.0000052131
          0.000008485396 -0.000012613453 -8.0712e-7 0.000008131302 -0.00001197222 -0.0000021523
          0.00000771208 -0.000011827062 -0.0000037709 -0.000008962808 -0.000013399264 0.000002071
          -0.0000092203145 -0.000013397851 3.9902e-7 -0.000009150805 -0.000013411233 -0.0000013256
          -0.000008412667 -0.000013333525 0.0000036443 -0.000008758645 -0.000013325895 -0.0000030245
          -0.000008197307 -0.000013480499 -0.0000045052 -0.000006829387 -0.000013491565 0.0000060849
          -0.000007701955 -0.000013387355 0.0000049443 -0.0000076568995 -0.0000137492025 -0.0000056152
          -0.0000066200614 -0.000013299544 -0.0000067216 -0.0000054251764 -0.000013358478 -0.0000078227
          -0.000004760042 -0.000013829253 0.0000078059 -0.0000057262005 -0.0000135808195 0.000007091
          -0.0000035969633 -0.000013475947 0.0000081491 -0.0000028993827 -0.000013291288 -0.0000092227
          -0.0000022809204 -0.000013170531 0.00000835 -9.194903e-7 -0.000020617654 0.0000087032
          -0.000001349606 -0.000012971307 -0.0000095586 1.4404095e-7 -0.0000130477265 0.0000083718
          4.2700248e-7 -0.000013208449 -0.0000098464 0.0000016908034 -0.000013614791 -0.0000099009
          0.000001378442 -0.000012947986 0.0000081224 0.0000027129709 -0.000013005746 0.0000076762
          0.0000028684863 -0.000013307203 -0.0000095277 0.0000037998836 -0.00001296709 0.0000070965
          0.0000053803833 -0.000013503958 -0.0000083505 0.0000068316904 -0.000012796878 0.0000040976
          0.000006346087 -0.000013398391 -0.0000074676 0.0000075479297 -0.000013103569 0.0000031245
          0.000007972101 -0.000012722833 0.0000018238 0.0000073921387 -0.000013447515 -0.0000062245
          0.000008573049 -0.000013223766 4.6099e-7 0.000008815558 -0.000013480559 -0.0000019435
          0.00000850894 -0.000013112835 -0.0000032753 0.000008036036 -0.000013069413 -0.000004676
          -0.000004565711 -0.000009838139 0.0000047854 -0.000009116376 -0.000014675102 0.0000031083
          -0.000009662474 -0.0000149053 -5.2895e-7 -0.000009416698 -0.0000148946165 -0.0000022678
          -0.00000847502 -0.000014656907 0.0000045321 -0.000008892755 -0.000014803575 -0.0000038615
          -0.000008233165 -0.0000147860455 -0.000005206 -0.000007624182 -0.00001470044 0.0000058177
          -0.000007415857 -0.000014835052 -0.000006394 -0.0000054496486 -0.000014846839 0.0000077989
          -0.000006576477 -0.000014748205 0.0000069136 -0.000005003701 -0.000014473649 -0.0000085031
          -0.0000041703693 -0.00001503881 0.0000084882 -0.0000037906982 -0.000014630211 -0.0000092462
          -0.0000025870108 -0.000014588778 0.0000088112 -0.000002053147 -0.000014750344 -0.0000099454
          -9.871568e-7 -0.0000140323045 0.0000087969 -5.790792e-7 -0.000014215374 -0.000010104
          7.576831e-7 -0.000014173196 0.0000087138 0.0000021246324 -0.00001423843 0.0000083772
          0.0000036651152 -0.0000144316855 0.0000077469 0.0000038274834 -0.000014098417 -0.0000094678
          0.0000021895498 -0.000023157698 0.0000066017 0.0000049045766 -0.0000143716925 -0.0000089949
          -0.000004235572 -0.0000081457965 8.9995e-7 0.0000060008174 -0.000014700435 -0.0000082981
          0.000008116577 -0.00001414946 0.0000028107 0.000007072027 -0.000014853944 -0.0000073058
          0.000008603344 -0.000014214512 0.0000016092 0.000008960132 -0.0000144429 4.5979e-7
          0.000008983686 -0.000013974091 -6.4569e-7 0.000008651638 -0.000014282267 -0.0000041926
          0.000008209939 -0.000014249863 -0.0000052655 9.032624e-7 -0.000014824513 -0.000010294
          -0.000009933463 -0.000016526445 2.2444e-7 -0.000009802672 -0.000016460841 -0.0000014128
          -0.000009032451 -0.000015909323 0.0000040085 -0.000009502601 -0.000015961965 0.0000027306
          -0.000009331897 -0.000016641021 -0.000003346 -0.000008312172 -0.000016010748 0.0000053209
          -0.0000086962345 -0.000015969827 -0.0000046999 -0.0000029671487 -0.000011969649 0.000007527
          -0.000008085554 -0.000016116204 -0.0000057945 -0.0000072518 -0.000016063073 -0.0000068864
          -0.000005120931 -0.000016019281 0.0000082534 -0.000004901718 -0.000015809503 -0.0000088624
          -0.0000033360245 -0.00001629776 -0.0000096947 -0.000002805197 -0.000016183263 0.0000090734
          -0.0000017930091 -0.000016655225 -0.000010226 -0.0000014869199 -0.000015769903 0.0000091927
          1.03749835e-8 -0.00001550809 0.0000091181 -6.174346e-7 -0.000015602158 -0.000010366
          0.0000014357464 -0.00001558039 0.0000088894 0.0000016440315 -0.0000121894545 -0.0000093012
          0.0000026490816 -0.00001554302 0.00000848 0.0000041553494 -0.000015395464 -0.0000096103
          0.000005343243 -0.000015772837 -0.0000089885 -0.0000091028 -0.000018482247 -0.0000036688
          0.000007986206 -0.00001547922 0.0000037409 0.000009057964 -0.000015539552 0.0000010892
          0.000009271205 -0.000015393722 -2.867e-7 -0.000007027982 -0.000023993896 0.0000013985
          0.000009246516 -0.000014990438 -0.0000016453 0.0000090043895 -0.000015506803 -0.0000038361
          0.000008643341 -0.000015474483 -0.0000049349 0.0000026472767 -0.000014820845 -0.000010031
          -0.000009430333 -0.000017134556 0.0000033204 -0.00000977857 -0.000016807211 0.0000018591
          -0.000008857864 -0.00001723544 0.0000046055 0.00000553551 -0.000010679624 0.0000038039
          -0.0000098986275 -0.000017896464 -5.2945e-7 -0.0000073610686 -0.000016128928 0.0000065386
          -0.0000067075034 -0.000016652337 -0.0000075128 -0.0000053906515 -0.000017275559 0.0000082004
          -0.0000057458305 -0.000016904129 -0.0000083537 -0.0000041994053 -0.00001667442 0.0000087221
          -0.000003148545 -0.000017411394 0.0000090597 0.000003901269 -0.000025343292 -0.0000021941
          -6.0540634e-7 -0.00001695206 -0.000010446 -5.9057044e-7 -0.00001675082 0.0000093044
          7.078763e-7 -0.000016929213 0.000009163 5.936778e-7 -0.000016385968 -0.000010495
          0.000003645853 -0.000016295593 0.0000081329 0.0000032513628 -0.000016703909 -0.000010046
          0.0000029164607 -0.00002276709 -0.0000076829 0.000004561476 -0.000016629841 -0.0000094784