# vtk DataFile Version 4.2
vtk output
ASCII
DATASET UNSTRUCTURED_GRID
POINTS 2422 float
-4.67995E-06 -8.49526E-06 -3.10350E-06 -3.18475E-06 -7.86454E-06 1.42530E-06 -4.10447E-06 -7.90282E-06 -4.03170E-07 
-3.98624E-06 -7.90166E-06 -1.76830E-06 -3.09613E-06 -7.86633E-06 -2.83250E-06 -3.14099E-06 -7.70220E-06 3.42790E-07 
-2.19173E-06 -7.92232E-06 -4.17360E-06 9.35410E-06 -1.80656E-05 -6.25760E-07 -6.30942E-06 -2.44101E-05 2.34910E-06 
-1.33080E-06 -7.90531E-06 2.84340E-06 6.18059E-07 -8.75165E-06 -6.54920E-06 -6.91142E-07 -7.74524E-06 -4.04470E-06 
4.92276E-06 -2.32133E-05 -5.82130E-06 -3.58325E-08 -7.72390E-06 2.20250E-06 2.11397E-07 -7.56212E-06 8.16930E-07 
3.93402E-09 -8.08972E-06 -5.43010E-06 1.45267E-06 -7.66962E-06 1.43540E-06 -1.54023E-06 -7.56711E-06 -1.88430E-06 
1.08553E-06 -2.61190E-05 -2.59880E-06 7.85178E-07 -7.71403E-06 -4.28090E-06 2.59040E-06 -7.68499E-06 4.21010E-07 
-6.58204E-06 -2.21192E-05 5.61050E-06 1.77760E-06 -7.56721E-06 -2.79700E-06 2.31448E-06 -7.90978E-06 -4.27620E-06 
3.25754E-06 -7.84051E-06 -3.00360E-06 -5.12882E-06 -8.63002E-06 1.29370E-06 -5.21257E-06 -8.52685E-06 1.08180E-07 
-1.62046E-06 -7.54183E-06 -2.83990E-07 -4.51400E-06 -9.28450E-06 -5.06700E-06 -4.31414E-06 -8.46341E-06 2.28380E-06 
-3.48129E-06 -8.33834E-06 -4.33050E-06 6.33663E-06 -9.84396E-06 6.96400E-07 -1.63203E-06 -9.41400E-06 -7.02200E-06 
-1.95770E-06 -8.61813E-06 4.38140E-06 -8.48076E-07 -8.66706E-06 -6.31740E-06 -8.61604E-08 -8.33840E-06 4.06280E-06 
1.34631E-06 -8.74140E-06 4.50250E-06 1.65478E-06 -8.17618E-06 3.21360E-06 2.40263E-06 -8.90953E-06 4.26900E-06 
-6.63608E-06 -1.11673E-05 4.29240E-06 2.02181E-06 -9.00460E-06 -6.60160E-06 3.39552E-06 -8.82610E-06 3.40270E-06 
2.89052E-06 -8.08712E-06 1.97240E-06 3.97798E-06 -8.22744E-06 8.27270E-07 3.55380E-06 -8.24098E-06 -4.17700E-06 
3.08401E-06 -8.61924E-06 -5.49150E-06 4.08706E-06 -8.64029E-06 2.14290E-06 -6.36754E-06 -1.17255E-05 -5.91670E-06 
4.47645E-06 -8.41564E-06 -3.28020E-06 4.49710E-06 -8.87234E-06 -4.65540E-06 5.22032E-06 -8.71111E-06 -2.22250E-06 
-5.76651E-06 -9.19712E-06 2.05320E-06 -6.07001E-06 -9.10508E-06 7.39630E-07 -6.18295E-06 -9.13450E-06 -6.00730E-07 
-5.15630E-06 -9.36445E-06 3.44230E-06 -5.59518E-06 -9.50156E-06 -3.99420E-06 -3.01673E-08 -1.91337E-05 -1.01610E-05 
-3.20276E-06 -9.54359E-06 5.25870E-06 8.07499E-06 -2.11191E-05 -3.45500E-06 -1.92306E-06 -9.51261E-06 5.67340E-06 
-6.68413E-07 -9.18267E-06 5.42260E-06 -2.13373E-07 -9.63832E-06 -7.56210E-06 -4.60212E-07 -1.07358E-05 -8.44690E-06 
6.51459E-07 -9.12213E-06 5.25350E-06 1.16673E-06 -9.53289E-06 -7.39480E-06 3.17471E-06 -1.21993E-05 -8.90550E-06 
2.37371E-06 -9.96704E-06 -7.58170E-06 3.18937E-06 -9.45286E-06 -6.65540E-06 -9.22070E-06 -2.06964E-05 -7.99650E-07 
5.16280E-06 -9.04394E-06 1.43170E-06 -4.17613E-07 -2.60525E-05 -3.19340E-06 5.69822E-06 -9.31602E-06 -3.57110E-06 
6.52104E-06 -9.79209E-06 -6.60130E-07 6.19741E-06 -9.43306E-06 -1.89730E-06 -6.87030E-06 -9.94733E-06 1.32740E-06 
-6.90582E-06 -9.78978E-06 1.80300E-07 -7.15888E-06 -1.00332E-05 -1.00130E-06 -6.50371E-06 -1.01958E-05 2.95640E-06 
-6.68874E-06 -1.04474E-05 -3.75720E-06 -5.84987E-06 -1.04433E-05 -5.12220E-06 -5.63903E-06 -1.02691E-05 4.32350E-06 
-5.01388E-06 -1.06922E-05 -6.33390E-06 -9.59099E-06 -1.50126E-05 1.41840E-06 -3.99769E-06 -1.03359E-05 5.78370E-06 
-2.69602E-06 -1.04558E-05 6.48350E-06 -7.65602E-06 -2.31643E-05 -1.26320E-06 -1.69190E-06 -1.10635E-05 7.19050E-06 
-1.12958E-06 -1.01114E-05 6.47080E-06 5.02785E-07 -1.00075E-05 6.30600E-06 1.08172E-06 -1.06350E-05 -8.40710E-06 
2.71148E-06 -1.10949E-05 -8.40320E-06 3.36777E-06 -9.75932E-06 4.79760E-06 3.89637E-06 -1.04435E-05 -7.31780E-06 
4.40901E-06 -9.89116E-06 4.08870E-06 5.99499E-06 -1.01151E-05 2.24070E-06 5.27071E-06 -1.06614E-05 -6.44750E-06 
6.75004E-06 -1.01692E-05 -2.86930E-06 1.94096E-06 -1.60304E-05 -1.03350E-05 7.24259E-06 -1.06865E-05 -2.66830E-08 
6.78290E-06 -1.76518E-05 -7.78770E-06 -7.81340E-06 -1.08092E-05 2.88910E-07 -7.94890E-06 -1.10378E-05 -1.12070E-06 
-7.38316E-06 -1.12899E-05 3.19960E-06 -7.64495E-06 -1.09825E-05 1.91180E-06 -2.55877E-06 -1.10880E-05 -8.20160E-06 
-6.87583E-06 -1.13736E-05 -4.85150E-06 -6.19037E-06 -1.60626E-05 7.56570E-06 -5.36710E-06 -1.11877E-05 5.63290E-06 
2.50309E-06 -2.41564E-05 5.37220E-06 -3.96226E-06 -1.12129E-05 6.59500E-06 -8.18577E-06 -1.21145E-05 2.68480E-06 
-3.63881E-07 -1.10118E-05 7.24300E-06 -1.41191E-06 -1.14509E-05 -8.79040E-06 9.52150E-07 -1.11462E-05 7.15630E-06 
1.97615E-06 -1.07373E-05 6.55700E-06 3.23295E-06 -1.06980E-05 5.90420E-06 4.54097E-06 -1.08249E-05 5.05600E-06 
4.09085E-06 -1.17432E-05 -8.22430E-06 -8.46095E-06 -2.19397E-05 2.31060E-06 4.99531E-06 -1.14168E-05 -7.36240E-06 
6.48565E-06 -1.10596E-05 2.83180E-06 6.18197E-06 -1.09595E-05 -5.65910E-06 7.86761E-06 -1.14785E-05 -8.38690E-07 
7.26437E-06 -1.05737E-05 -1.57800E-06 7.39330E-06 -1.09678E-05 -2.85150E-06 -5.64020E-06 -2.44447E-05 -3.00420E-06 
4.89080E-06 -1.55244E-05 7.26230E-06 -8.54583E-06 -1.20533E-05 1.20160E-06 -8.43809E-06 -1.20726E-05 -2.07220E-06 
-7.59247E-06 -1.21987E-05 4.02280E-06 -7.79411E-06 -1.18715E-05 -3.74100E-06 -7.33604E-06 -1.25475E-05 -5.30260E-06 
-6.72972E-06 -1.22796E-05 5.31530E-06 1.97240E-06 -9.63254E-06 5.49420E-06 -5.90182E-06 -1.25576E-05 6.31740E-06 
5.05196E-06 -2.10105E-05 -7.89780E-06 -4.64108E-06 -1.24393E-05 7.11130E-06 -4.52030E-06 -1.23936E-05 -7.97730E-06 
-6.22328E-06 -1.51145E-05 -7.74690E-06 -3.42170E-06 -1.21508E-05 -8.45440E-06 -2.33516E-06 -1.21532E-05 -8.90420E-06 
-2.56489E-06 -8.80674E-06 -5.87820E-06 4.31736E-07 -1.19494E-05 7.79530E-06 -7.67216E-06 -1.99569E-05 -5.64830E-06 
3.00108E-06 -1.17859E-05 6.86830E-06 7.41665E-06 -1.40864E-05 4.08380E-06 4.33068E-06 -1.19491E-05 6.14190E-06 
5.67168E-06 -1.21293E-05 5.05760E-06 5.26490E-06 -1.23946E-05 -7.85530E-06 6.36860E-06 -1.16991E-05 3.77850E-06 
6.22986E-06 -1.20013E-05 -6.68110E-06 6.54036E-06 -1.60991E-05 -8.07970E-06 7.11567E-06 -1.20091E-05 2.90910E-06 
7.12636E-06 -1.11548E-05 1.64990E-06 7.98153E-06 -1.19527E-05 3.87170E-07 7.14662E-06 -1.18810E-05 -5.21310E-06 
8.48540E-06 -1.26135E-05 -8.07120E-07 8.13130E-06 -1.19722E-05 -2.15230E-06 7.71208E-06 -1.18271E-05 -3.77090E-06 
-8.96281E-06 -1.33993E-05 2.07100E-06 -9.22031E-06 -1.33979E-05 3.99020E-07 -9.15081E-06 -1.34112E-05 -1.32560E-06 
-8.41267E-06 -1.33335E-05 3.64430E-06 -8.75864E-06 -1.33259E-05 -3.02450E-06 -8.19731E-06 -1.34805E-05 -4.50520E-06 
-6.82939E-06 -1.34916E-05 6.08490E-06 -7.70195E-06 -1.33874E-05 4.94430E-06 -7.65690E-06 -1.37492E-05 -5.61520E-06 
-6.62006E-06 -1.32995E-05 -6.72160E-06 -5.42518E-06 -1.33585E-05 -7.82270E-06 -4.76004E-06 -1.38293E-05 7.80590E-06 
-5.72620E-06 -1.35808E-05 7.09100E-06 -3.59696E-06 -1.34759E-05 8.14910E-06 -2.89938E-06 -1.32913E-05 -9.22270E-06 
-2.28092E-06 -1.31705E-05 8.35000E-06 -9.19490E-07 -2.06177E-05 8.70320E-06 -1.34961E-06 -1.29713E-05 -9.55860E-06 
1.44041E-07 -1.30477E-05 8.37180E-06 4.27002E-07 -1.32084E-05 -9.84640E-06 1.69080E-06 -1.36148E-05 -9.90090E-06 
1.37844E-06 -1.29480E-05 8.12240E-06 2.71297E-06 -1.30057E-05 7.67620E-06 2.86849E-06 -1.33072E-05 -9.52770E-06 
3.79988E-06 -1.29671E-05 7.09650E-06 5.38038E-06 -1.35040E-05 -8.35050E-06 6.83169E-06 -1.27969E-05 4.09760E-06 
6.34609E-06 -1.33984E-05 -7.46760E-06 7.54793E-06 -1.31036E-05 3.12450E-06 7.97210E-06 -1.27228E-05 1.82380E-06 
7.39214E-06 -1.34475E-05 -6.22450E-06 8.57305E-06 -1.32238E-05 4.60990E-07 8.81556E-06 -1.34806E-05 -1.94350E-06 
8.50894E-06 -1.31128E-05 -3.27530E-06 8.03604E-06 -1.30694E-05 -4.67600E-06 -4.56571E-06 -9.83814E-06 4.78540E-06 
-9.11638E-06 -1.46751E-05 3.10830E-06 -9.66247E-06 -1.49053E-05 -5.28950E-07 -9.41670E-06 -1.48946E-05 -2.26780E-06 
-8.47502E-06 -1.46569E-05 4.53210E-06 -8.89276E-06 -1.48036E-05 -3.86150E-06 -8.23317E-06 -1.47860E-05 -5.20600E-06 
-7.62418E-06 -1.47004E-05 5.81770E-06 -7.41586E-06 -1.48351E-05 -6.39400E-06 -5.44965E-06 -1.48468E-05 7.79890E-06 
-6.57648E-06 -1.47482E-05 6.91360E-06 -5.00370E-06 -1.44736E-05 -8.50310E-06 -4.17037E-06 -1.50388E-05 8.48820E-06 
-3.79070E-06 -1.46302E-05 -9.24620E-06 -2.58701E-06 -1.45888E-05 8.81120E-06 -2.05315E-06 -1.47503E-05 -9.94540E-06 
-9.87157E-07 -1.40323E-05 8.79690E-06 -5.79079E-07 -1.42154E-05 -1.01040E-05 7.57683E-07 -1.41732E-05 8.71380E-06 
2.12463E-06 -1.42384E-05 8.37720E-06 3.66512E-06 -1.44317E-05 7.74690E-06 3.82748E-06 -1.40984E-05 -9.46780E-06 
2.18955E-06 -2.31577E-05 6.60170E-06 4.90458E-06 -1.43717E-05 -8.99490E-06 -4.23557E-06 -8.14580E-06 8.99950E-07 
6.00082E-06 -1.47004E-05 -8.29810E-06 8.11658E-06 -1.41495E-05 2.81070E-06 7.07203E-06 -1.48539E-05 -7.30580E-06 
8.60334E-06 -1.42145E-05 1.60920E-06 8.96013E-06 -1.44429E-05 4.59790E-07 8.98369E-06 -1.39741E-05 -6.45690E-07 
8.65164E-06 -1.42823E-05 -4.19260E-06 8.20994E-06 -1.42499E-05 -5.26550E-06 9.03262E-07 -1.48245E-05 -1.02940E-05 
-9.93346E-06 -1.65264E-05 2.24440E-07 -9.80267E-06 -1.64608E-05 -1.41280E-06 -9.03245E-06 -1.59093E-05 4.00850E-06 
-9.50260E-06 -1.59620E-05 2.73060E-06 -9.33190E-06 -1.66410E-05 -3.34600E-06 -8.31217E-06 -1.60107E-05 5.32090E-06 
-8.69623E-06 -1.59698E-05 -4.69990E-06 -2.96715E-06 -1.19696E-05 7.52700E-06 -8.08555E-06 -1.61162E-05 -5.79450E-06 
-7.25180E-06 -1.60631E-05 -6.88640E-06 -5.12093E-06 -1.60193E-05 8.25340E-06 -4.90172E-06 -1.58095E-05 -8.86240E-06 
-3.33602E-06 -1.62978E-05 -9.69470E-06 -2.80520E-06 -1.61833E-05 9.07340E-06 -1.79301E-06 -1.66552E-05 -1.02260E-05 
-1.48692E-06 -1.57699E-05 9.19270E-06 1.03750E-08 -1.55081E-05 9.11810E-06 -6.17435E-07 -1.56022E-05 -1.03660E-05 
1.43575E-06 -1.55804E-05 8.88940E-06 1.64403E-06 -1.21895E-05 -9.30120E-06 2.64908E-06 -1.55430E-05 8.48000E-06 
4.15535E-06 -1.53955E-05 -9.61030E-06 5.34324E-06 -1.57728E-05 -8.98850E-06 -9.10280E-06 -1.84822E-05 -3.66880E-06 
7.98621E-06 -1.54792E-05 3.74090E-06 9.05796E-06 -1.55396E-05 1.08920E-06 9.27121E-06 -1.53937E-05 -2.86700E-07 
-7.02798E-06 -2.39939E-05 1.39850E-06 9.24652E-06 -1.49904E-05 -1.64530E-06 9.00439E-06 -1.55068E-05 -3.83610E-06 
[...]
CELL_DATA 1
FIELD FieldData 2
Cell_id 1 1 int
1 2 3 4
METADATA
INFORMATION 0

Cell_type_id 1 1 int
0 0 0 0
METADATA
INFORMATION 0

