# vtk DataFile Version 4.2
vtk output
ASCII
DATASET UNSTRUCTURED_GRID
POINTS 1210 float
1.79255E-05 4.74723E-06 -2.00230E-06 1.86100E-05 2.74160E-06 2.84000E-07 1.84153E-05 3.47365E-06 -2.55710E-06 
1.86641E-05 1.47855E-06 1.22160E-06 1.88124E-05 2.01752E-06 -2.54650E-06 1.84802E-05 2.33102E-06 -3.90280E-06 
1.81446E-05 1.36723E-06 2.65020E-06 1.89602E-05 1.36525E-06 -2.77520E-07 1.90397E-05 1.06498E-06 -1.74330E-06 
1.61617E-05 -2.62451E-06 -7.96780E-06 1.85432E-05 3.25488E-07 1.82470E-06 1.89108E-05 -5.68871E-08 4.91100E-07 
1.90893E-05 1.61295E-07 -9.44200E-07 1.90826E-05 -4.19334E-07 -2.14190E-06 1.90241E-05 -1.06727E-06 -8.23370E-07 
1.88813E-05 -7.02330E-07 -3.34760E-06 7.26454E-07 4.36376E-06 -1.15290E-06 1.11830E-05 8.08415E-06 4.60710E-06 
1.87773E-05 -1.70607E-06 4.26260E-07 1.88130E-05 -2.35702E-06 -9.04120E-07 1.89582E-05 -1.64222E-06 -1.80560E-06 
1.88896E-05 -1.59879E-06 -2.84710E-06 1.85949E-05 -1.64150E-06 -4.07970E-06 1.87223E-05 -2.62425E-06 -2.14640E-06 
1.85138E-05 -2.72879E-06 -3.37720E-06 1.81242E-05 -2.88989E-06 -4.59840E-06 1.82678E-05 -3.76451E-06 -2.62350E-06 
1.73784E-05 5.34230E-06 7.97220E-07 1.72150E-05 5.92465E-06 -1.59380E-06 1.72844E-05 5.60118E-06 -2.79460E-06 
1.69178E-05 5.72396E-06 -3.89890E-06 1.73852E-05 3.60118E-06 3.07520E-06 1.80357E-05 4.11479E-06 6.81770E-07 
1.77321E-05 5.07318E-06 -4.63940E-07 1.77261E-05 4.66983E-06 -3.38040E-06 1.73475E-05 4.47920E-06 -4.74960E-06 
1.80146E-05 3.63056E-06 -4.03870E-06 1.76721E-05 2.86324E-06 -5.54920E-06 1.74562E-05 2.39942E-06 3.65300E-06 
1.83392E-05 1.12588E-06 -4.96060E-06 1.77042E-05 1.28674E-06 -6.21250E-06 1.80716E-05 -1.24244E-07 2.94990E-06 
1.17287E-05 2.12087E-08 8.32350E-06 1.72208E-05 2.28087E-07 -7.16820E-06 1.76351E-05 -9.48370E-07 -6.46640E-06 
1.77589E-05 -1.74183E-06 3.14630E-06 1.81005E-05 -1.58071E-06 -5.46840E-06 1.75319E-05 -1.97490E-06 -6.40410E-06 
1.74712E-05 -3.33094E-06 2.69630E-06 1.82180E-05 -2.48236E-06 1.65520E-06 1.84200E-05 -3.13791E-06 1.86930E-07 
1.78044E-05 -3.93308E-06 1.25790E-06 1.78986E-05 -4.45161E-06 -2.23640E-07 1.83966E-05 -3.61302E-06 -1.26670E-06 
1.80575E-05 -3.72923E-06 -3.80200E-06 1.35814E-05 2.09541E-06 -9.83450E-06 1.76962E-05 -4.98860E-06 -1.75740E-06 
1.74696E-05 -4.28828E-06 -4.82540E-06 1.66994E-05 5.98990E-06 1.65540E-06 1.62772E-05 7.07843E-06 -1.47310E-06 
1.65590E-05 6.57345E-06 -2.76750E-06 1.59514E-05 6.72214E-06 -4.08250E-06 1.64467E-05 5.49018E-06 2.94750E-06 
9.43532E-06 -3.02480E-06 7.95650E-06 1.29312E-07 1.57542E-06 7.64840E-07 1.68501E-05 4.42491E-06 3.35100E-06 
1.66889E-05 4.45730E-06 -6.00840E-06 1.67401E-05 3.47889E-06 4.21960E-06 1.66513E-05 3.41495E-06 -6.84100E-06 
1.68589E-05 2.02395E-06 -7.24550E-06 1.66795E-05 8.56673E-08 5.08220E-06 1.61737E-05 7.87922E-07 -8.31310E-06 
8.00345E-06 -7.97930E-06 3.60940E-06 1.69048E-05 -1.40894E-06 -7.47650E-06 1.64062E-05 -4.25643E-07 -8.14410E-06 
1.68851E-05 -2.85211E-06 3.98890E-06 1.69387E-05 -2.86784E-06 -6.92780E-06 1.65654E-05 -4.18287E-06 3.45890E-06 
1.62612E-05 -3.61084E-06 -7.36940E-06 1.70035E-05 -4.69390E-06 2.12830E-06 1.72116E-05 -5.20995E-06 7.36500E-07 
1.72244E-05 -5.54711E-06 -4.92120E-07 1.66140E-05 -5.31877E-06 -5.30580E-06 1.65637E-05 -6.48424E-06 -1.40900E-06 
1.69744E-05 -5.89464E-06 -2.82550E-06 1.68986E-05 -5.58790E-06 -4.14060E-06 1.49888E-05 7.98382E-06 8.19910E-07 
1.57112E-05 7.55586E-06 -1.48810E-07 1.55544E-05 7.54819E-06 -2.77560E-06 1.56544E-05 5.97382E-06 3.63190E-06 
1.57099E-05 6.64617E-06 2.57350E-06 1.59698E-05 4.85004E-06 4.33760E-06 1.53464E-05 6.62567E-06 -5.27500E-06 
1.58755E-05 3.65292E-06 5.20150E-06 1.58412E-05 4.43450E-06 -7.10270E-06 1.58485E-05 3.19320E-06 -7.85880E-06 
1.57379E-05 2.00552E-06 -8.44470E-06 1.63665E-05 1.97033E-06 5.27910E-06 1.59689E-05 -1.14114E-06 5.70830E-06 
1.54717E-05 -2.85270E-07 -8.97940E-06 1.52534E-05 -2.14212E-06 6.06500E-06 1.60439E-05 -2.43181E-06 5.21460E-06 
1.58901E-05 -1.49360E-06 -8.52110E-06 1.43422E-05 -8.28416E-06 -2.61200E-06 9.87007E-06 9.86392E-06 1.65710E-07 
1.58840E-05 -3.75449E-06 4.63930E-06 1.54102E-05 -3.71170E-06 -8.18970E-06 1.56068E-05 -5.04235E-06 3.90080E-06 
1.62091E-05 -5.26927E-06 2.79680E-06 1.58394E-05 -5.62839E-06 -6.18430E-06 1.67219E-05 -4.22294E-06 -6.30420E-06 
1.56637E-05 -4.66544E-06 -7.30680E-06 1.63506E-05 -5.85379E-06 1.65040E-06 1.64141E-05 -6.35468E-06 2.33870E-07 
1.58772E-05 -6.42526E-06 -4.91970E-06 1.22332E-05 2.73110E-07 -1.06010E-05 1.61790E-05 -6.81576E-06 -2.66600E-06 
1.63111E-05 -6.47144E-06 -3.63540E-06 1.54349E-05 -7.54277E-06 -1.91570E-06 7.78951E-06 8.56001E-06 -5.48810E-06 
1.46399E-05 8.37728E-06 -1.84120E-07 1.47373E-05 6.96361E-06 3.56490E-06 1.17563E-05 -7.70365E-06 3.69080E-06 
1.49330E-05 5.88539E-06 4.63310E-06 1.49011E-05 4.67764E-06 5.60390E-06 1.48556E-05 5.15044E-06 -7.45750E-06 
1.48806E-05 4.17592E-06 -8.15740E-06 1.51819E-05 3.17012E-06 6.10540E-06 1.51770E-05 1.87726E-06 6.44160E-06 
2.99283E-06 -7.09763E-06 3.38720E-07 1.07007E-05 7.59703E-06 -7.09180E-06 1.55159E-05 3.10687E-07 6.30070E-06 
1.48848E-05 -1.18640E-06 6.64300E-06 1.43243E-05 -2.55810E-06 6.61390E-06 1.49910E-05 -1.44865E-06 -9.26370E-06 
1.50523E-05 -3.34737E-06 5.71560E-06 1.51886E-05 -2.52141E-06 -8.86860E-06 1.47267E-05 -4.76820E-06 5.03860E-06 
1.45913E-05 -4.81756E-06 -8.18470E-06 1.45611E-05 -5.84373E-06 4.13110E-06 1.51758E-05 -6.33978E-06 2.80690E-06 
1.49135E-05 -6.59379E-06 -6.10850E-06 1.48337E-05 -5.77008E-06 -7.19040E-06 1.24760E-05 -8.76979E-06 -4.38240E-06 
1.08008E-05 -5.46994E-06 -9.33850E-06 1.53546E-05 -7.39218E-06 -3.50350E-06 1.32065E-05 8.62000E-06 2.19800E-06 
1.40249E-05 8.56523E-06 9.99760E-07 1.35839E-05 8.96008E-06 -6.57800E-08 1.39414E-05 8.80826E-06 -1.25540E-06 
1.68800E-05 -1.44423E-06 4.60280E-06 1.34106E-05 8.56439E-06 -3.79870E-06 1.35426E-05 7.87818E-06 3.46170E-06 
1.32915E-05 7.42538E-07 -1.02160E-05 1.05878E-05 -9.11349E-06 1.14490E-06 1.42219E-05 7.05148E-06 -5.95100E-06 
1.28029E-05 5.85233E-06 6.23910E-06 1.38615E-05 5.88049E-06 5.58930E-06 1.40233E-05 6.09077E-06 -7.27790E-06 
1.35943E-05 4.90777E-06 6.44100E-06 1.39210E-05 5.06657E-06 -8.21650E-06 1.42087E-05 3.90430E-06 6.56920E-06 
1.37996E-05 4.13016E-06 -8.88360E-06 1.40468E-05 2.69632E-06 7.09640E-06 1.42854E-05 1.16466E-06 7.19230E-06 
1.30914E-05 5.97028E-07 7.88280E-06 1.41997E-05 -1.94255E-07 7.25900E-06 1.39148E-05 -1.40359E-06 7.22330E-06 
1.37860E-05 -2.30113E-06 -9.78320E-06 1.43203E-05 -3.64600E-06 -9.04630E-06 4.84327E-06 6.89068E-06 -6.29070E-06 
1.33954E-05 -5.75707E-06 5.15290E-06 1.36890E-05 -5.94133E-06 -7.94110E-06 5.64911E-07 1.92374E-06 -4.75790E-06 
1.43578E-05 -7.32873E-06 2.13430E-06 1.40272E-05 -6.59933E-06 -7.01360E-06 1.41170E-05 -8.02556E-06 7.68510E-07 
1.27162E-05 -7.13781E-06 -7.29020E-06 1.43753E-05 -8.22957E-06 -1.02210E-06 1.76512E-05 -4.76063E-06 -3.35540E-06 
1.39673E-05 -8.20840E-06 -3.95640E-06 8.99527E-06 -7.17729E-06 4.91330E-06 1.26854E-05 9.21608E-06 8.24360E-07 
1.29822E-05 9.08496E-06 -2.46710E-06 1.20892E-05 9.06858E-06 -3.80350E-06 1.28775E-05 8.21437E-06 -5.19920E-06 
1.23684E-05 -5.05968E-06 6.27090E-06 1.27472E-05 6.75754E-06 5.48870E-06 1.25753E-05 7.24073E-06 -6.89420E-06 
1.23559E-05 5.12849E-06 6.92900E-06 1.27980E-05 5.99174E-06 -8.10270E-06 1.28321E-05 4.81422E-06 -8.98370E-06 
1.31431E-05 3.95905E-06 7.17310E-06 1.26412E-05 2.85886E-06 7.77920E-06 1.29490E-05 3.35791E-06 -9.69330E-06 
1.32619E-05 1.81829E-06 7.69570E-06 6.32323E-07 3.94752E-06 -2.84310E-06 1.21777E-05 1.86278E-06 -1.04360E-05 
1.30862E-05 -8.82302E-06 -4.90830E-07 1.13403E-05 8.79308E-06 -4.99000E-06 1.28603E-05 -9.49911E-07 -1.03980E-05 
1.34936E-05 -7.05192E-06 3.53720E-06 1.29320E-05 -3.72060E-06 -9.69440E-06 1.33973E-05 -4.89487E-06 -8.89470E-06 
1.23344E-05 -6.03526E-06 -8.54080E-06 1.33781E-05 -7.89837E-06 2.10690E-06 1.34734E-05 -8.07626E-06 -5.14820E-06 
1.37587E-05 -7.42120E-06 -6.11330E-06 1.24218E-05 -8.65241E-06 1.24770E-06 1.34416E-05 -8.77059E-06 -1.73380E-06 
1.31095E-05 -8.83201E-06 -2.99410E-06 1.01532E-05 4.24938E-06 7.86830E-06 1.12861E-05 9.65891E-06 4.33730E-07 
1.46328E-05 2.90480E-06 -8.98270E-06 1.15339E-05 9.55490E-06 -2.34050E-06 4.41939E-06 6.65634E-06 4.48050E-06 
1.14021E-05 9.26012E-06 2.13930E-06 1.17102E-05 8.14359E-06 -6.01360E-06 1.16407E-05 7.26843E-06 5.46050E-06 
1.16549E-05 6.66096E-06 -7.91000E-06 1.15444E-05 6.32990E-06 6.36840E-06 1.15365E-05 5.49772E-06 -8.95020E-06 
1.18062E-05 4.07836E-06 7.64630E-06 1.18817E-05 4.29243E-06 -9.60440E-06 1.13142E-05 3.20866E-06 -1.02500E-05 
1.20668E-05 1.65918E-06 8.21650E-06 1.08487E-05 6.66518E-07 -1.08540E-05 1.16191E-05 -1.53999E-06 8.12760E-06 
4.18858E-06 -4.30573E-07 -9.51190E-06 1.19589E-05 -2.61509E-06 -1.03690E-05 1.23518E-05 -3.92567E-06 6.98010E-06 
1.22406E-05 -4.95358E-06 -9.32200E-06 1.16122E-05 -4.17724E-06 -9.90890E-06 6.28173E-06 -8.19201E-06 2.30860E-06 
1.20758E-05 -6.02258E-06 5.57670E-06 1.22586E-05 -6.81558E-06 4.65380E-06 1.24669E-05 -8.02425E-06 2.68240E-06 
1.24883E-05 -8.14858E-06 -5.89100E-06 1.80893E-05 2.95176E-06 1.96100E-06 1.38073E-05 6.94735E-06 4.56200E-06 
1.21031E-05 -9.26630E-06 -1.79440E-06 1.19640E-05 -9.18031E-06 -3.23480E-06 1.02831E-05 9.61158E-06 1.39910E-06 
5.95873E-06 -4.87967E-06 6.20180E-06 1.08264E-05 9.81296E-06 -9.84480E-07 1.02012E-05 9.78142E-06 -2.14670E-06 
1.08507E-05 8.77418E-06 3.54390E-06 5.79226E-06 -8.90053E-06 -1.76070E-06 1.04971E-05 8.38370E-06 -5.98740E-06 
4.31986E-06 8.40923E-06 -4.60920E-10 5.00922E-06 8.60673E-07 7.60240E-06 1.01808E-05 7.35633E-06 5.70330E-06 
1.04024E-05 6.51046E-06 -8.31990E-06 1.00137E-05 5.43623E-06 -9.21110E-06 1.11427E-05 5.19819E-06 7.23420E-06 
1.05000E-05 4.40438E-06 -9.80870E-06 1.11900E-05 2.78417E-06 8.22220E-06 1.07102E-05 2.08130E-06 -1.06540E-05 
8.30305E-06 -7.44671E-06 -7.60140E-06 1.13093E-05 -8.05552E-07 -1.08200E-05 1.11676E-05 -3.19555E-06 7.69020E-06 
1.12221E-05 -4.58430E-06 6.96660E-06 1.11799E-05 -5.69735E-06 6.16790E-06 7.61910E-06 3.72902E-06 -9.95140E-06 
[...]
CELL_DATA 1
FIELD FieldData 2
Cell_id 1 1 int
1 2
METADATA
INFORMATION 0

Cell_type_id 1 1 int
0 0
METADATA
INFORMATION 0

